                         Program Version 5.0.4 -  RELEASE  -
|  1> ! PBE def2-TZVP
|  2>
|  3> * xyz 0 1
|  4>   As    -0.000070    0.286431   -0.000000
|  5>   F      0.002460    1.997159   -0.000001
|  6>   F      1.481706   -0.567862    0.000001
|  7>   F     -1.481017   -0.570245    0.000001
|  8>   F     -0.001540    0.286760    1.730672
|  9>   F     -0.001540    0.286757   -1.730672
| 10> *
| 11>
| 12>                          ****END OF INPUT****

CARTESIAN COORDINATES (ANGSTROEM)
---------------------------------
  As    -0.000070    0.286431   -0.000000
  F      0.002460    1.997159   -0.000001
  F      1.481706   -0.567862    0.000001
  F     -1.481017   -0.570245    0.000001
  F     -0.001540    0.286760    1.730672
  F     -0.001540    0.286757   -1.730672

 Total Charge           Charge          ....    0
 Multiplicity           Mult            ....    1
 Number of Electrons    NEL             ....   78
 Basis Dimension        Dim             ....  203

ORBITAL ENERGIES
----------------

  NO   OCC          E(Eh)            E(eV)
   0   2.0000    -424.330809    -11546.6283
   1   2.0000     -53.394986     -1452.9514
   2   2.0000     -47.777182     -1300.0832
   3   2.0000     -47.777177     -1300.0831
   4   2.0000     -47.776653     -1300.0688
   5   2.0000     -24.317732      -661.7191
   6   2.0000     -24.317585      -661.7151
   7   2.0000     -24.317541      -661.7139
   8   2.0000     -24.290407      -660.9756
   9   2.0000     -24.290398      -660.9753
  10   2.0000      -6.934734      -188.7037
  11   2.0000      -5.037890      -137.0879
  12   2.0000      -5.037869      -137.0874
  13   2.0000      -5.035038      -137.0103
  14   2.0000      -1.712685       -46.6045
  15   2.0000      -1.712435       -46.5977
  16   2.0000      -1.712412       -46.5971
  17   2.0000      -1.707309       -46.4582
  18   2.0000      -1.707293       -46.4578
  19   2.0000      -1.183257       -32.1981
  20   2.0000      -1.138096       -30.9692
  21   2.0000      -1.138014       -30.9669
  22   2.0000      -1.119571       -30.4651
  23   2.0000      -1.093561       -29.7573
  24   2.0000      -0.655922       -17.8485
  25   2.0000      -0.525551       -14.3010
  26   2.0000      -0.525534       -14.3005
  27   2.0000      -0.518600       -14.1118
  28   2.0000      -0.443987       -12.0815
  29   2.0000      -0.443956       -12.0807
  30   2.0000      -0.433913       -11.8074
  31   2.0000      -0.433803       -11.8044
  32   2.0000      -0.427133       -11.6229
  33   2.0000      -0.414761       -11.2862
  34   2.0000      -0.403090       -10.9686
  35   2.0000      -0.390400       -10.6233
  36   2.0000      -0.390391       -10.6231
  37   2.0000      -0.371965       -10.1217
  38   2.0000      -0.371780       -10.1166
  39   0.0000      -0.153329        -4.1723
  40   0.0000      -0.015189        -0.4133
  41   0.0000      -0.014613        -0.3976
  42   0.0000       0.069775         1.8987
  43   0.0000       0.182556         4.9676

MULLIKEN ATOMIC CHARGES
-----------------------
   0 As:    1.308373
   1 F :   -0.242591
   2 F :   -0.242458
   3 F :   -0.242632
   4 F :   -0.290346
   5 F :   -0.290346
Sum of atomic charges:    0.0000000

LOEWDIN ATOMIC CHARGES
----------------------
   0 As:    0.447639
   1 F :   -0.076140
   2 F :   -0.075839
   3 F :   -0.076261
   4 F :   -0.109699
   5 F :   -0.109699

  Mayer bond orders larger than 0.100000
B(  0-As,  1-F ) :   1.0563 B(  0-As,  2-F ) :   1.0566 B(  0-As,  3-F ) :   1.0562
B(  0-As,  4-F ) :   1.0397 B(  0-As,  5-F ) :   1.0397

FINAL SINGLE POINT ENERGY     -2734.599257748637

DIPOLE MOMENT
-------------
                                X             Y             Z
Electronic contribution:      0.00025      -0.00069      -0.00000
Nuclear contribution   :      0.00022       0.00022       0.00000
                        -----------------------------------------
Total Dipole Moment    :      0.00047      -0.00047      -0.00000
                        -----------------------------------------
Magnitude (a.u.)       :      0.00067
Magnitude (Debye)      :      0.00169

Rotational constants in cm-1:     0.101073     0.085544     0.085426
Rotational constants in MHz :  3030.093180  2564.551326  2561.004180

                             ****ORCA TERMINATED NORMALLY****
TOTAL RUN TIME: 0 days 0 hours 0 minutes 9 seconds 981 msec
