                         Program Version 5.0.4 -  RELEASE  -
|  1> ! PBE def2-TZVP OptTS
|  2>
|  3> # %geom
|  4> #   Calc_Hess true
|  5> # end
|  6>
|  7> %geom
|  8>   inhess read
|  9>   inhessname "PCl5_ts_guess.hess"
| 10> end
| 11>
| 12> * xyz 0 1
| 13> P  0.0000  0.0000  0.0000  # Phosphorus (P)
| 14> Cl  0.0000  2.0200  0.0000  # Equatorial Chlorine (Cl1)
| 15> Cl  2.0091 -0.4026  0.0000  # Equatorial Chlorine (Cl2)
| 16> Cl -2.0091 -0.4026  0.0000  # Equatorial Chlorine (Cl3)
| 17> Cl  0.0000 -0.4026  2.0091  # Axial Chlorine (Cl4)
| 18> Cl  0.0000 -0.4026 -2.0091  # Axial Chlorine (Cl5)
| 19> **                         ****END OF INPUT****
 Total Charge           Charge          ....    0
 Multiplicity           Mult            ....    1
 Number of Electrons    NEL             ....  100
FINAL SINGLE POINT ENERGY     -2641.412565747086
FINAL SINGLE POINT ENERGY     -2641.417467942396
FINAL SINGLE POINT ENERGY     -2641.417593768380
FINAL SINGLE POINT ENERGY     -2641.417596300668
                    ***********************HURRAY********************

CARTESIAN COORDINATES (ANGSTROEM)
---------------------------------
  P     -0.000000    0.022811   -0.000000
  Cl    -0.000000    2.046810   -0.000000
  Cl     2.065348   -0.415005    0.000000
  Cl    -2.065348   -0.415005    0.000000
  Cl     0.000000   -0.415005    2.065348
  Cl    -0.000000   -0.415005   -2.065348

 Multiplicity           Mult            ....    1
 Number of Electrons    NEL             ....  100
 Basis Dimension        Dim             ....  222

ORBITAL ENERGIES
----------------

  NO   OCC          E(Eh)            E(eV)
   0   2.0000    -100.707215     -2740.3826
   1   2.0000    -100.681921     -2739.6944
   2   2.0000    -100.681921     -2739.6944
   3   2.0000    -100.681915     -2739.6942
   4   2.0000    -100.681909     -2739.6940
   5   2.0000     -76.518201     -2082.1661
   6   2.0000      -9.221693      -250.9350
   7   2.0000      -9.196439      -250.2478
   8   2.0000      -9.196439      -250.2478
   9   2.0000      -9.196424      -250.2474
  10   2.0000      -9.196406      -250.2469
  11   2.0000      -7.044887      -191.7011
  12   2.0000      -7.034865      -191.4284
  13   2.0000      -7.034865      -191.4284
  14   2.0000      -7.019283      -191.0044
  15   2.0000      -7.019283      -191.0044
  16   2.0000      -7.019281      -191.0043
  17   2.0000      -7.019281      -191.0043
  18   2.0000      -7.010593      -190.7679
  19   2.0000      -7.010593      -190.7679
  20   2.0000      -7.010593      -190.7679
  21   2.0000      -7.010593      -190.7679
  22   2.0000      -7.008984      -190.7242
  23   2.0000      -7.008982      -190.7241
  24   2.0000      -7.008982      -190.7241
  25   2.0000      -7.008982      -190.7241
  26   2.0000      -6.496419      -176.7765
  27   2.0000      -4.715107      -128.3046
  28   2.0000      -4.712711      -128.2394
  29   2.0000      -4.712711      -128.2394
  30   2.0000      -0.866120       -23.5683
  31   2.0000      -0.790730       -21.5168
  32   2.0000      -0.779449       -21.2099
  33   2.0000      -0.779449       -21.2099
  34   2.0000      -0.743736       -20.2381
  35   2.0000      -0.584898       -15.9159
  36   2.0000      -0.449908       -12.2426
  37   2.0000      -0.449908       -12.2426
  38   2.0000      -0.449722       -12.2376
  39   2.0000      -0.365530        -9.9466
  40   2.0000      -0.350193        -9.5292
  41   2.0000      -0.350193        -9.5292
  42   2.0000      -0.334437        -9.1005
  43   2.0000      -0.330817        -9.0020
  44   2.0000      -0.301261        -8.1977
  45   2.0000      -0.301261        -8.1977
  46   2.0000      -0.292489        -7.9590
  47   2.0000      -0.291686        -7.9372
  48   2.0000      -0.291686        -7.9372
  49   2.0000      -0.255961        -6.9651
  50   0.0000      -0.176351        -4.7988
  51   0.0000      -0.099010        -2.6942
  52   0.0000      -0.043199        -1.1755
  53   0.0000      -0.043199        -1.1755
  54   0.0000       0.093878         2.5545

MULLIKEN ATOMIC CHARGES
-----------------------
   0 P :    0.494837
   1 Cl:   -0.044982
   2 Cl:   -0.112464
   3 Cl:   -0.112464
   4 Cl:   -0.112464
   5 Cl:   -0.112464
Sum of atomic charges:   -0.0000000

LOEWDIN ATOMIC CHARGES
----------------------
   0 P :   -0.610792
   1 Cl:    0.211177
   2 Cl:    0.099904
   3 Cl:    0.099904
   4 Cl:    0.099904
   5 Cl:    0.099904

  Mayer bond orders larger than 0.100000
B(  0-P ,  1-Cl) :   1.1998 B(  0-P ,  2-Cl) :   1.0756 B(  0-P ,  3-Cl) :   1.0756
B(  0-P ,  4-Cl) :   1.0756 B(  0-P ,  5-Cl) :   1.0756

FINAL SINGLE POINT ENERGY     -2641.417596304138

DIPOLE MOMENT
-------------
                                X             Y             Z
Electronic contribution:     -0.00000       0.24023      -0.00000
Nuclear contribution   :     -0.00000      -0.01296      -0.00000
                        -----------------------------------------
Total Dipole Moment    :     -0.00000       0.22727      -0.00000
                        -----------------------------------------
Magnitude (a.u.)       :      0.22727
Magnitude (Debye)      :      0.57767

Rotational constants in cm-1:     0.035532     0.035532     0.027867
Rotational constants in MHz :  1065.233362  1065.233342   835.445716

                             ****ORCA TERMINATED NORMALLY****
TOTAL RUN TIME: 0 days 0 hours 1 minutes 2 seconds 19 msec
