                         Program Version 5.0.4 -  RELEASE  -
|  1> ! PBE def2-TZVP Opt
|  2>
|  3> * xyz 0 1
|  4> As  0.0000  0.0000  0.0000  # Arsenic (As)
|  5> F  0.0000  1.7190  0.0000  # Equatorial Fluorine (F1)
|  6> F  1.4887 -0.8595  0.0000  # Equatorial Fluorine (F2)
|  7> F -1.4887 -0.8595  0.0000  # Equatorial Fluorine (F3)
|  8> F  0.0000  0.0000  1.6680  # Axial Fluorine (F4)
|  9> F  0.0000  0.0000 -1.6680  # Axial Fluorine (F5)
| 10> *
| 11>
| 12>                          ****END OF INPUT****
 Total Charge           Charge          ....    0
 Multiplicity           Mult            ....    1
 Number of Electrons    NEL             ....   78
FINAL SINGLE POINT ENERGY     -2734.594827112578
FINAL SINGLE POINT ENERGY     -2734.597530329909
FINAL SINGLE POINT ENERGY     -2734.599200377079
FINAL SINGLE POINT ENERGY     -2734.599253293552
FINAL SINGLE POINT ENERGY     -2734.599256899586
                    ***********************HURRAY********************

CARTESIAN COORDINATES (ANGSTROEM)
---------------------------------
  As    -0.000000   -0.000055   -0.000000
  F      0.000000    1.710807   -0.000000
  F      1.481818   -0.855206    0.000000
  F     -1.481818   -0.855206    0.000000
  F      0.000000   -0.000170    1.730818
  F     -0.000000   -0.000170   -1.730818

 Multiplicity           Mult            ....    1
 Number of Electrons    NEL             ....   78
 Basis Dimension        Dim             ....  203

ORBITAL ENERGIES
----------------

  NO   OCC          E(Eh)            E(eV)
   0   2.0000    -424.330851    -11546.6295
   1   2.0000     -53.395025     -1452.9525
   2   2.0000     -47.777219     -1300.0842
   3   2.0000     -47.777219     -1300.0842
   4   2.0000     -47.776693     -1300.0699
   5   2.0000     -24.317631      -661.7164
   6   2.0000     -24.317619      -661.7161
   7   2.0000     -24.317618      -661.7160
   8   2.0000     -24.290430      -660.9762
   9   2.0000     -24.290421      -660.9759
  10   2.0000      -6.934767      -188.7046
  11   2.0000      -5.037912      -137.0886
  12   2.0000      -5.037909      -137.0885
  13   2.0000      -5.035070      -137.0112
  14   2.0000      -1.712709       -46.6052
  15   2.0000      -1.712452       -46.5982
  16   2.0000      -1.712447       -46.5980
  17   2.0000      -1.707334       -46.4589
  18   2.0000      -1.707329       -46.4588
  19   2.0000      -1.183196       -32.1964
  20   2.0000      -1.138024       -30.9672
  21   2.0000      -1.138016       -30.9670
  22   2.0000      -1.119556       -30.4647
  23   2.0000      -1.093563       -29.7574
  24   2.0000      -0.655934       -17.8489
  25   2.0000      -0.525523       -14.3002
  26   2.0000      -0.525511       -14.2999
  27   2.0000      -0.518586       -14.1115
  28   2.0000      -0.443949       -12.0805
  29   2.0000      -0.443941       -12.0803
  30   2.0000      -0.433835       -11.8053
  31   2.0000      -0.433833       -11.8052
  32   2.0000      -0.427139       -11.6230
  33   2.0000      -0.414744       -11.2858
  34   2.0000      -0.403083       -10.9684
  35   2.0000      -0.390399       -10.6233
  36   2.0000      -0.390396       -10.6232
  37   2.0000      -0.371887       -10.1196
  38   2.0000      -0.371874       -10.1192
  39   0.0000      -0.153466        -4.1760
  40   0.0000      -0.015053        -0.4096
  41   0.0000      -0.014954        -0.4069
  42   0.0000       0.069670         1.8958
  43   0.0000       0.182579         4.9682

MULLIKEN ATOMIC CHARGES
-----------------------
   0 As:    1.308490
   1 F :   -0.242604
   2 F :   -0.242601
   3 F :   -0.242601
   4 F :   -0.290342
   5 F :   -0.290342
Sum of atomic charges:   -0.0000000

LOEWDIN ATOMIC CHARGES
----------------------
   0 As:    0.448149
   1 F :   -0.076201
   2 F :   -0.076206
   3 F :   -0.076206
   4 F :   -0.109768
   5 F :   -0.109768

  Mayer bond orders larger than 0.100000
B(  0-As,  1-F ) :   1.0563 B(  0-As,  2-F ) :   1.0562 B(  0-As,  3-F ) :   1.0562
B(  0-As,  4-F ) :   1.0395 B(  0-As,  5-F ) :   1.0395

FINAL SINGLE POINT ENERGY     -2734.599257857604

DIPOLE MOMENT
-------------
                                X             Y             Z
Electronic contribution:     -0.00000      -0.00039      -0.00000
Nuclear contribution   :      0.00000       0.00017       0.00000
                        -----------------------------------------
Total Dipole Moment    :     -0.00000      -0.00022      -0.00000
                        -----------------------------------------
Magnitude (a.u.)       :      0.00022
Magnitude (Debye)      :      0.00056

Rotational constants in cm-1:     0.101050     0.085476     0.085460
Rotational constants in MHz :  3029.400591  2562.520474  2562.037532

                             ****ORCA TERMINATED NORMALLY****
TOTAL RUN TIME: 0 days 0 hours 1 minutes 59 seconds 275 msec
