                         Program Version 5.0.4 -  RELEASE  -
|  1> ! PBE def2-TZVP Opt
|  2>
|  3> * xyz 0 1
|  4> Sb  0.0000  0.0000  0.0000  # Antimony (Sb)
|  5> Cl  0.0000  2.2770  0.0000  # Equatorial Chlorine (Cl1)
|  6> Cl  1.9719 -1.1385  0.0000  # Equatorial Chlorine (Cl2)
|  7> Cl -1.9719 -1.1385  0.0000  # Equatorial Chlorine (Cl3)
|  8> Cl  0.0000  0.0000  2.3380  # Axial Chlorine (Cl4)
|  9> Cl  0.0000  0.0000 -2.3380  # Axial Chlorine (Cl5)
| 10> *
| 11>
| 12>                          ****END OF INPUT****
 Total Charge           Charge          ....    0
 Multiplicity           Mult            ....    1
 Number of Electrons    NEL             ....  108
FINAL SINGLE POINT ENERGY     -2540.506895450984
FINAL SINGLE POINT ENERGY     -2540.510243561558
FINAL SINGLE POINT ENERGY     -2540.510686025181
FINAL SINGLE POINT ENERGY     -2540.510698878140
FINAL SINGLE POINT ENERGY     -2540.510700114481
                    ***********************HURRAY********************

CARTESIAN COORDINATES (ANGSTROEM)
---------------------------------
  Sb    -0.000000    0.000127    0.000000
  Cl    -0.000000    2.337519   -0.000000
  Cl     2.023604   -1.169297    0.000000
  Cl    -2.023604   -1.169297    0.000000
  Cl     0.000000    0.000474    2.374368
  Cl     0.000000    0.000474   -2.374368

 Multiplicity           Mult            ....    1
 Number of Electrons    NEL             ....  108
 Basis Dimension        Dim             ....  235

ORBITAL ENERGIES
----------------

  NO   OCC          E(Eh)            E(eV)
   0   2.0000    -100.695079     -2740.0524
   1   2.0000    -100.695079     -2740.0524
   2   2.0000    -100.695058     -2740.0518
   3   2.0000    -100.675207     -2739.5117
   4   2.0000    -100.675205     -2739.5116
   5   2.0000      -9.208994      -250.5895
   6   2.0000      -9.208993      -250.5894
   7   2.0000      -9.208970      -250.5888
   8   2.0000      -9.189398      -250.0562
   9   2.0000      -9.189394      -250.0561
  10   2.0000      -7.031450      -191.3355
  11   2.0000      -7.031447      -191.3354
  12   2.0000      -7.031425      -191.3348
  13   2.0000      -7.023229      -191.1118
  14   2.0000      -7.023228      -191.1118
  15   2.0000      -7.023201      -191.1110
  16   2.0000      -7.022054      -191.0798
  17   2.0000      -7.022053      -191.0798
  18   2.0000      -7.022035      -191.0793
  19   2.0000      -7.011711      -190.7984
  20   2.0000      -7.011705      -190.7982
  21   2.0000      -7.003083      -190.5636
  22   2.0000      -7.003082      -190.5635
  23   2.0000      -7.003081      -190.5635
  24   2.0000      -7.003080      -190.5635
  25   2.0000      -5.636078      -153.3655
  26   2.0000      -3.904341      -106.2425
  27   2.0000      -3.904338      -106.2424
  28   2.0000      -3.902486      -106.1920
  29   2.0000      -1.344454       -36.5845
  30   2.0000      -1.344448       -36.5843
  31   2.0000      -1.343606       -36.5614
  32   2.0000      -1.341550       -36.5054
  33   2.0000      -1.341537       -36.5051
  34   2.0000      -0.816298       -22.2126
  35   2.0000      -0.775709       -21.1081
  36   2.0000      -0.775702       -21.1079
  37   2.0000      -0.761327       -20.7168
  38   2.0000      -0.746392       -20.3103
  39   2.0000      -0.567008       -15.4291
  40   2.0000      -0.418102       -11.3771
  41   2.0000      -0.418090       -11.3768
  42   2.0000      -0.414934       -11.2909
  43   2.0000      -0.339755        -9.2452
  44   2.0000      -0.339743        -9.2449
  45   2.0000      -0.330467        -8.9925
  46   2.0000      -0.330445        -8.9919
  47   2.0000      -0.329759        -8.9732
  48   2.0000      -0.318910        -8.6780
  49   2.0000      -0.309938        -8.4338
  50   2.0000      -0.301075        -8.1927
  51   2.0000      -0.301075        -8.1927
  52   2.0000      -0.286965        -7.8087
  53   2.0000      -0.286936        -7.8079
  54   0.0000      -0.203524        -5.5382
  55   0.0000      -0.085749        -2.3334
  56   0.0000      -0.085651        -2.3307
  57   0.0000      -0.040911        -1.1133
  58   0.0000       0.078781         2.1437

MULLIKEN ATOMIC CHARGES
-----------------------
   0 Sb:    0.997232
   1 Cl:   -0.186073
   2 Cl:   -0.186050
   3 Cl:   -0.186050
   4 Cl:   -0.219530
   5 Cl:   -0.219530
Sum of atomic charges:   -0.0000000

LOEWDIN ATOMIC CHARGES
----------------------
   0 Sb:   -0.314161
   1 Cl:    0.084380
   2 Cl:    0.084512
   3 Cl:    0.084512
   4 Cl:    0.030379
   5 Cl:    0.030379

  Mayer bond orders larger than 0.100000
B(  0-Sb,  1-Cl) :   1.0124 B(  0-Sb,  2-Cl) :   1.0125 B(  0-Sb,  3-Cl) :   1.0125
B(  0-Sb,  4-Cl) :   0.9657 B(  0-Sb,  5-Cl) :   0.9657

FINAL SINGLE POINT ENERGY     -2540.510700292376

DIPOLE MOMENT
-------------
                                X             Y             Z
Electronic contribution:     -0.00000       0.00583       0.00000
Nuclear contribution   :      0.00000      -0.00605      -0.00000
                        -----------------------------------------
Total Dipole Moment    :     -0.00000      -0.00023       0.00000
                        -----------------------------------------
Magnitude (a.u.)       :      0.00023
Magnitude (Debye)      :      0.00057

Rotational constants in cm-1:     0.029014     0.024428     0.024417
Rotational constants in MHz :   869.814290   732.328265   732.006425

                             ****ORCA TERMINATED NORMALLY****
TOTAL RUN TIME: 0 days 0 hours 1 minutes 35 seconds 46 msec
