                         Program Version 5.0.4 -  RELEASE  -
|  1> ! PBE def2-TZVP
|  2>
|  3> * xyz 0 1
|  4>   As    -0.000000   -0.000055   -0.000000
|  5>   F      0.000000    1.710807   -0.000000
|  6>   F      1.481818   -0.855206    0.000000
|  7>   F     -1.481818   -0.855206    0.000000
|  8>   F      0.000000   -0.000170    1.730818
|  9>   F     -0.000000   -0.000170   -1.730818
| 10> *
| 11>
| 12>                          ****END OF INPUT****

CARTESIAN COORDINATES (ANGSTROEM)
---------------------------------
  As    -0.000000   -0.000055   -0.000000
  F      0.000000    1.710807   -0.000000
  F      1.481818   -0.855206    0.000000
  F     -1.481818   -0.855206    0.000000
  F      0.000000   -0.000170    1.730818
  F     -0.000000   -0.000170   -1.730818

 Total Charge           Charge          ....    0
 Multiplicity           Mult            ....    1
 Number of Electrons    NEL             ....   78
 Basis Dimension        Dim             ....  203

ORBITAL ENERGIES
----------------

  NO   OCC          E(Eh)            E(eV)
   0   2.0000    -424.330863    -11546.6298
   1   2.0000     -53.395036     -1452.9528
   2   2.0000     -47.777231     -1300.0845
   3   2.0000     -47.777230     -1300.0845
   4   2.0000     -47.776704     -1300.0702
   5   2.0000     -24.317632      -661.7164
   6   2.0000     -24.317620      -661.7161
   7   2.0000     -24.317618      -661.7160
   8   2.0000     -24.290431      -660.9762
   9   2.0000     -24.290422      -660.9760
  10   2.0000      -6.934772      -188.7047
  11   2.0000      -5.037917      -137.0887
  12   2.0000      -5.037914      -137.0886
  13   2.0000      -5.035075      -137.0114
  14   2.0000      -1.712713       -46.6053
  15   2.0000      -1.712456       -46.5983
  16   2.0000      -1.712452       -46.5982
  17   2.0000      -1.707338       -46.4590
  18   2.0000      -1.707334       -46.4589
  19   2.0000      -1.183196       -32.1964
  20   2.0000      -1.138025       -30.9672
  21   2.0000      -1.138016       -30.9670
  22   2.0000      -1.119557       -30.4647
  23   2.0000      -1.093563       -29.7574
  24   2.0000      -0.655934       -17.8489
  25   2.0000      -0.525524       -14.3002
  26   2.0000      -0.525511       -14.2999
  27   2.0000      -0.518587       -14.1115
  28   2.0000      -0.443949       -12.0805
  29   2.0000      -0.443942       -12.0803
  30   2.0000      -0.433836       -11.8053
  31   2.0000      -0.433834       -11.8052
  32   2.0000      -0.427139       -11.6231
  33   2.0000      -0.414744       -11.2858
  34   2.0000      -0.403083       -10.9685
  35   2.0000      -0.390399       -10.6233
  36   2.0000      -0.390396       -10.6232
  37   2.0000      -0.371887       -10.1196
  38   2.0000      -0.371874       -10.1192
  39   0.0000      -0.153466        -4.1760
  40   0.0000      -0.015054        -0.4096
  41   0.0000      -0.014954        -0.4069
  42   0.0000       0.069670         1.8958
  43   0.0000       0.182580         4.9683

MULLIKEN ATOMIC CHARGES
-----------------------
   0 As:    1.308484
   1 F :   -0.242602
   2 F :   -0.242599
   3 F :   -0.242599
   4 F :   -0.290342
   5 F :   -0.290342
Sum of atomic charges:    0.0000000

LOEWDIN ATOMIC CHARGES
----------------------
   0 As:    0.448145
   1 F :   -0.076201
   2 F :   -0.076205
   3 F :   -0.076205
   4 F :   -0.109767
   5 F :   -0.109767

  Mayer bond orders larger than 0.100000
B(  0-As,  1-F ) :   1.0563 B(  0-As,  2-F ) :   1.0562 B(  0-As,  3-F ) :   1.0562
B(  0-As,  4-F ) :   1.0395 B(  0-As,  5-F ) :   1.0395

FINAL SINGLE POINT ENERGY     -2734.599257942682

DIPOLE MOMENT
-------------
                                X             Y             Z
Electronic contribution:     -0.00000      -0.00040      -0.00000
Nuclear contribution   :      0.00000       0.00017       0.00000
                        -----------------------------------------
Total Dipole Moment    :     -0.00000      -0.00022      -0.00000
                        -----------------------------------------
Magnitude (a.u.)       :      0.00022
Magnitude (Debye)      :      0.00056

Rotational constants in cm-1:     0.101050     0.085476     0.085460
Rotational constants in MHz :  3029.400005  2562.520223  2562.038001

                             ****ORCA TERMINATED NORMALLY****
TOTAL RUN TIME: 0 days 0 hours 0 minutes 17 seconds 82 msec
