                         Program Version 5.0.4 -  RELEASE  -
|  1> ! PBE def2-TZVP Freq
|  2>
|  3> * xyz 0 1
|  4> P  0.0000  0.0000  0.0000  # Phosphorus (P)
|  5> Cl  0.0000  2.0200  0.0000  # Equatorial Chlorine (Cl1)
|  6> Cl  2.0091 -0.4026  0.0000  # Equatorial Chlorine (Cl2)
|  7> Cl -2.0091 -0.4026  0.0000  # Equatorial Chlorine (Cl3)
|  8> Cl  0.0000 -0.4026  2.0091  # Axial Chlorine (Cl4)
|  9> Cl  0.0000 -0.4026 -2.0091  # Axial Chlorine (Cl5)
| 10> *
| 11>
| 12>                          ****END OF INPUT****

CARTESIAN COORDINATES (ANGSTROEM)
---------------------------------
  P      0.000000    0.000000    0.000000
  Cl     0.000000    2.020000    0.000000
  Cl     2.009100   -0.402600    0.000000
  Cl    -2.009100   -0.402600    0.000000
  Cl     0.000000   -0.402600    2.009100
  Cl     0.000000   -0.402600   -2.009100

 Total Charge           Charge          ....    0
 Multiplicity           Mult            ....    1
 Number of Electrons    NEL             ....  100
 Basis Dimension        Dim             ....  222

ORBITAL ENERGIES
----------------

  NO   OCC          E(Eh)            E(eV)
   0   2.0000    -100.697142     -2740.1085
   1   2.0000    -100.679921     -2739.6399
   2   2.0000    -100.679921     -2739.6399
   3   2.0000    -100.679916     -2739.6398
   4   2.0000    -100.679910     -2739.6396
   5   2.0000     -76.508839     -2081.9114
   6   2.0000      -9.212132      -250.6748
   7   2.0000      -9.195624      -250.2256
   8   2.0000      -9.195624      -250.2256
   9   2.0000      -9.195609      -250.2252
  10   2.0000      -9.195591      -250.2248
  11   2.0000      -7.035117      -191.4353
  12   2.0000      -7.025328      -191.1689
  13   2.0000      -7.025328      -191.1689
  14   2.0000      -7.018034      -190.9704
  15   2.0000      -7.018032      -190.9704
  16   2.0000      -7.018030      -190.9703
  17   2.0000      -7.018030      -190.9703
  18   2.0000      -7.009896      -190.7490
  19   2.0000      -7.009896      -190.7490
  20   2.0000      -7.009896      -190.7490
  21   2.0000      -7.009895      -190.7490
  22   2.0000      -7.008120      -190.7006
  23   2.0000      -7.008118      -190.7006
  24   2.0000      -7.008118      -190.7006
  25   2.0000      -7.008118      -190.7006
  26   2.0000      -6.488525      -176.5617
  27   2.0000      -4.707226      -128.0901
  28   2.0000      -4.704635      -128.0196
  29   2.0000      -4.704635      -128.0196
  30   2.0000      -0.879706       -23.9380
  31   2.0000      -0.788331       -21.4516
  32   2.0000      -0.788331       -21.4516
  33   2.0000      -0.787894       -21.4397
  34   2.0000      -0.744823       -20.2677
  35   2.0000      -0.580394       -15.7933
  36   2.0000      -0.455847       -12.4042
  37   2.0000      -0.455847       -12.4042
  38   2.0000      -0.450803       -12.2670
  39   2.0000      -0.376310       -10.2399
  40   2.0000      -0.351535        -9.5657
  41   2.0000      -0.351535        -9.5657
  42   2.0000      -0.336364        -9.1529
  43   2.0000      -0.332833        -9.0569
  44   2.0000      -0.299031        -8.1370
  45   2.0000      -0.299031        -8.1370
  46   2.0000      -0.292636        -7.9630
  47   2.0000      -0.291061        -7.9202
  48   2.0000      -0.291061        -7.9202
  49   2.0000      -0.251253        -6.8369
  50   0.0000      -0.157266        -4.2794
  51   0.0000      -0.092584        -2.5194
  52   0.0000      -0.021048        -0.5727
  53   0.0000      -0.021048        -0.5727
  54   0.0000       0.090781         2.4703

MULLIKEN ATOMIC CHARGES
-----------------------
   0 P :    0.489195
   1 Cl:   -0.064412
   2 Cl:   -0.106196
   3 Cl:   -0.106196
   4 Cl:   -0.106196
   5 Cl:   -0.106196
Sum of atomic charges:   -0.0000000

LOEWDIN ATOMIC CHARGES
----------------------
   0 P :   -0.762512
   1 Cl:    0.199422
   2 Cl:    0.140773
   3 Cl:    0.140773
   4 Cl:    0.140773
   5 Cl:    0.140773

  Mayer bond orders larger than 0.100000
B(  0-P ,  1-Cl) :   1.1951 B(  0-P ,  2-Cl) :   1.1226 B(  0-P ,  3-Cl) :   1.1226
B(  0-P ,  4-Cl) :   1.1226 B(  0-P ,  5-Cl) :   1.1226

FINAL SINGLE POINT ENERGY     -2641.412565742035

DIPOLE MOMENT
-------------
                                X             Y             Z
Electronic contribution:      0.00000       0.12403       0.00000
Nuclear contribution   :      0.00000      -0.01947       0.00000
                        -----------------------------------------
Total Dipole Moment    :      0.00000       0.10457       0.00000
                        -----------------------------------------
Magnitude (a.u.)       :      0.10457
Magnitude (Debye)      :      0.26578

VIBRATIONAL FREQUENCIES
-----------------------

Scaling factor for frequencies =  1.000000000  (already applied!)

   0:         0.00 cm**-1
   1:         0.00 cm**-1
   2:         0.00 cm**-1
   3:         0.00 cm**-1
   4:         0.00 cm**-1
   5:         0.00 cm**-1
   6:       -92.84 cm**-1 ***imaginary mode***
   7:       182.42 cm**-1
   8:       182.42 cm**-1
   9:       257.25 cm**-1
  10:       293.49 cm**-1
  11:       293.49 cm**-1
  12:       298.48 cm**-1
  13:       314.38 cm**-1
  14:       413.19 cm**-1
  15:       545.26 cm**-1
  16:       572.21 cm**-1
  17:       572.21 cm**-1

IR SPECTRUM
-----------

 Mode   freq       eps      Int      T**2         TX        TY        TZ
       cm**-1   L/(mol*cm) km/mol    a.u.
----------------------------------------------------------------------------
  7:    182.42   0.000009    0.04  0.000015  (-0.003848  0.000000 -0.000277)
  8:    182.42   0.000009    0.04  0.000015  ( 0.000277 -0.000000 -0.003848)
  9:    257.25   0.000286    1.44  0.000346  (-0.000000 -0.018612  0.000000)
 10:    293.49   0.001369    6.92  0.001456  ( 0.031026 -0.000000  0.022209)
 11:    293.49   0.001369    6.92  0.001456  ( 0.022209 -0.000000 -0.031026)
 12:    298.48   0.000000    0.00  0.000000  (-0.000000 -0.000000 -0.000000)
 13:    314.38   0.000000    0.00  0.000000  (-0.000000 -0.000000 -0.000000)
 14:    413.19   0.000136    0.69  0.000103  (-0.000000 -0.010153 -0.000000)
 15:    545.26   0.023374  118.12  0.013377  (-0.000000  0.115661  0.000000)
 16:    572.21   0.051375  259.63  0.028019  (-0.167319 -0.000000  0.004799)
 17:    572.21   0.051376  259.63  0.028019  ( 0.004799 -0.000000  0.167319)

--------------------------
THERMOCHEMISTRY AT 298.15K
--------------------------

Temperature         ... 298.15 K
Pressure            ... 1.00 atm
Total Mass          ... 208.24 AMU

Throughout the following assumptions are being made:
  (1) The electronic state is orbitally nondegenerate
  (2) There are no thermally accessible electronically excited states
  (3) Hindered rotations indicated by low frequency modes are not
      treated as such but are treated as vibrations and this may
      cause some error
  (4) All equations used are the standard statistical mechanics
      equations for an ideal gas
  (5) All vibrations are strictly harmonic

freq.     182.42  E(vib)   ...       0.37
freq.     182.42  E(vib)   ...       0.37
freq.     257.25  E(vib)   ...       0.30
freq.     293.49  E(vib)   ...       0.27
freq.     293.49  E(vib)   ...       0.27
freq.     298.48  E(vib)   ...       0.26
freq.     314.38  E(vib)   ...       0.25
freq.     413.19  E(vib)   ...       0.19
freq.     545.26  E(vib)   ...       0.12
freq.     572.21  E(vib)   ...       0.11
freq.     572.21  E(vib)   ...       0.11

------------
INNER ENERGY
------------

The inner energy is: U= E(el) + E(ZPE) + E(vib) + E(rot) + E(trans)
    E(el)   - is the total energy from the electronic structure calculation
              = E(kin-el) + E(nuc-el) + E(el-el) + E(nuc-nuc)
    E(ZPE)  - the the zero temperature vibrational energy from the frequency calculation
    E(vib)  - the the finite temperature correction to E(ZPE) due to population
              of excited vibrational states
    E(rot)  - is the rotational thermal energy
    E(trans)- is the translational thermal energy

Summary of contributions to the inner energy U:
Electronic energy                ...  -2641.41256574 Eh
Zero point energy                ...      0.00894132 Eh       5.61 kcal/mol
Thermal vibrational correction   ...      0.00417675 Eh       2.62 kcal/mol
Thermal rotational correction    ...      0.00141627 Eh       0.89 kcal/mol
Thermal translational correction ...      0.00141627 Eh       0.89 kcal/mol
-----------------------------------------------------------------------
Total thermal energy                  -2641.39661513 Eh

Summary of corrections to the electronic energy:
(perhaps to be used in another calculation)
Total thermal correction                  0.00700930 Eh       4.40 kcal/mol
Non-thermal (ZPE) correction              0.00894132 Eh       5.61 kcal/mol
-----------------------------------------------------------------------
Total correction                          0.01595061 Eh      10.01 kcal/mol

--------
ENTHALPY
--------

The enthalpy is H = U + kB*T
                kB is Boltzmann's constant
Total free energy                 ...  -2641.39661513 Eh
Thermal Enthalpy correction       ...      0.00094421 Eh       0.59 kcal/mol
-----------------------------------------------------------------------
Total Enthalpy                    ...  -2641.39567092 Eh

Note: Rotational entropy computed according to Herzberg
Infrared and Raman Spectra, Chapter V,1, Van Nostrand Reinhold, 1945
Point Group:  C4v, Symmetry Number:   4
Rotational constants in cm-1:     0.037226     0.037226     0.029450

Vibrational entropy computed according to the QRRHO of S. Grimme
Chem.Eur.J. 2012 18 9955

-------
ENTROPY
-------

The entropy contributions are T*S = T*(S(el)+S(vib)+S(rot)+S(trans))
     S(el)   - electronic entropy
     S(vib)  - vibrational entropy
     S(rot)  - rotational entropy
     S(trans)- translational entropy
The entropies will be listed as multiplied by the temperature to get
units of energy

Electronic entropy                ...      0.00000000 Eh      0.00 kcal/mol
Vibrational entropy               ...      0.00686458 Eh      4.31 kcal/mol
Rotational entropy                ...      0.01297311 Eh      8.14 kcal/mol
Translational entropy             ...      0.01991010 Eh     12.49 kcal/mol
-----------------------------------------------------------------------
Final entropy term                ...      0.03974779 Eh     24.94 kcal/mol

In case the symmetry of your molecule has not been determined correctly
or in case you have a reason to use a different symmetry number we print
out the resulting rotational entropy values for sn=1,12 :
 --------------------------------------------------------
|  sn= 1 | S(rot)=       0.01428203 Eh      8.96 kcal/mol|
|  sn= 2 | S(rot)=       0.01362757 Eh      8.55 kcal/mol|
|  sn= 3 | S(rot)=       0.01324474 Eh      8.31 kcal/mol|
|  sn= 4 | S(rot)=       0.01297311 Eh      8.14 kcal/mol|
|  sn= 5 | S(rot)=       0.01276242 Eh      8.01 kcal/mol|
|  sn= 6 | S(rot)=       0.01259028 Eh      7.90 kcal/mol|
|  sn= 7 | S(rot)=       0.01244473 Eh      7.81 kcal/mol|
|  sn= 8 | S(rot)=       0.01231866 Eh      7.73 kcal/mol|
|  sn= 9 | S(rot)=       0.01220745 Eh      7.66 kcal/mol|
|  sn=10 | S(rot)=       0.01210797 Eh      7.60 kcal/mol|
|  sn=11 | S(rot)=       0.01201798 Eh      7.54 kcal/mol|
|  sn=12 | S(rot)=       0.01193582 Eh      7.49 kcal/mol|
 --------------------------------------------------------

-------------------
GIBBS FREE ENERGY
-------------------

The Gibbs free energy is G = H - T*S

Total enthalpy                    ...  -2641.39567092 Eh
Total entropy correction          ...     -0.03974779 Eh    -24.94 kcal/mol
-----------------------------------------------------------------------
Final Gibbs free energy         ...  -2641.43541871 Eh

For completeness - the Gibbs free energy minus the electronic energy
G-E(el)                           ...     -0.02285297 Eh    -14.34 kcal/mol

                             ****ORCA TERMINATED NORMALLY****
TOTAL RUN TIME: 0 days 0 hours 1 minutes 59 seconds 256 msec
