                         Program Version 5.0.4 -  RELEASE  -
|  1> ! PBE def2-TZVP Freq
|  2>
|  3> * xyz 0 1
|  4> As  0.0000  0.0000  0.0000  # Arsenic (P)
|  5> Cl  0.0000  2.1060  0.0000  # Equatorial Chlorine (Cl1)
|  6> Cl  2.0830 -0.5581  0.0000  # Equatorial Chlorine (Cl2)
|  7> Cl -2.0830 -0.5581  0.0000  # Equatorial Chlorine (Cl3)
|  8> Cl  0.0000  0.5581  2.0830  # Axial Chlorine (Cl4)
|  9> Cl  0.0000  0.5581 -2.0830  # Axial Chlorine (Cl5)
| 10> *
| 11>
| 12>                          ****END OF INPUT****

CARTESIAN COORDINATES (ANGSTROEM)
---------------------------------
  As     0.000000    0.000000    0.000000
  Cl     0.000000    2.106000    0.000000
  Cl     2.083000   -0.558100    0.000000
  Cl    -2.083000   -0.558100    0.000000
  Cl     0.000000    0.558100    2.083000
  Cl     0.000000    0.558100   -2.083000

 Total Charge           Charge          ....    0
 Multiplicity           Mult            ....    1
 Number of Electrons    NEL             ....  118
 Basis Dimension        Dim             ....  233

ORBITAL ENERGIES
----------------

  NO   OCC          E(Eh)            E(eV)
   0   2.0000    -424.292414    -11545.5836
   1   2.0000    -100.709960     -2740.4573
   2   2.0000    -100.709949     -2740.4570
   3   2.0000    -100.665529     -2739.2483
   4   2.0000    -100.665525     -2739.2482
   5   2.0000    -100.647286     -2738.7519
   6   2.0000     -53.359995     -1451.9993
   7   2.0000     -47.742551     -1299.1409
   8   2.0000     -47.741842     -1299.1216
   9   2.0000     -47.741667     -1299.1168
  10   2.0000      -9.223925      -250.9958
  11   2.0000      -9.223896      -250.9950
  12   2.0000      -9.181735      -249.8477
  13   2.0000      -9.181722      -249.8473
  14   2.0000      -9.165428      -249.4040
  15   2.0000      -7.047363      -191.7685
  16   2.0000      -7.047357      -191.7683
  17   2.0000      -7.037690      -191.5053
  18   2.0000      -7.037688      -191.5052
  19   2.0000      -7.036435      -191.4711
  20   2.0000      -7.036432      -191.4711
  21   2.0000      -7.004750      -190.6089
  22   2.0000      -7.004745      -190.6088
  23   2.0000      -6.995025      -190.3443
  24   2.0000      -6.995023      -190.3442
  25   2.0000      -6.994474      -190.3293
  26   2.0000      -6.994474      -190.3293
  27   2.0000      -6.987697      -190.1449
  28   2.0000      -6.979707      -189.9275
  29   2.0000      -6.977345      -189.8632
  30   2.0000      -6.894521      -187.6095
  31   2.0000      -4.997934      -136.0007
  32   2.0000      -4.996604      -135.9645
  33   2.0000      -4.995168      -135.9254
  34   2.0000      -1.670476       -45.4560
  35   2.0000      -1.669380       -45.4261
  36   2.0000      -1.668469       -45.4014
  37   2.0000      -1.668231       -45.3949
  38   2.0000      -1.667122       -45.3647
  39   2.0000      -0.867803       -23.6141
  40   2.0000      -0.799834       -21.7646
  41   2.0000      -0.780958       -21.2510
  42   2.0000      -0.772848       -21.0303
  43   2.0000      -0.722617       -19.6634
  44   2.0000      -0.591486       -16.0951
  45   2.0000      -0.457663       -12.4536
  46   2.0000      -0.438010       -11.9189
  47   2.0000      -0.429735       -11.6937
  48   2.0000      -0.364977        -9.9315
  49   2.0000      -0.356995        -9.7143
  50   2.0000      -0.349882        -9.5208
  51   2.0000      -0.337693        -9.1891
  52   2.0000      -0.324832        -8.8391
  53   2.0000      -0.315533        -8.5861
  54   2.0000      -0.304761        -8.2930
  55   2.0000      -0.282794        -7.6952
  56   2.0000      -0.277326        -7.5464
  57   2.0000      -0.274599        -7.4722
  58   2.0000      -0.217758        -5.9255
  59   0.0000      -0.213033        -5.7969
  60   0.0000      -0.087945        -2.3931
  61   0.0000      -0.044225        -1.2034
  62   0.0000      -0.041233        -1.1220
  63   0.0000       0.111783         3.0418

MULLIKEN ATOMIC CHARGES
-----------------------
   0 As:    0.754591
   1 Cl:   -0.187160
   2 Cl:   -0.109549
   3 Cl:   -0.109549
   4 Cl:   -0.174166
   5 Cl:   -0.174166
Sum of atomic charges:   -0.0000000

LOEWDIN ATOMIC CHARGES
----------------------
   0 As:   -0.486811
   1 Cl:    0.063736
   2 Cl:    0.149675
   3 Cl:    0.149675
   4 Cl:    0.061862
   5 Cl:    0.061862

  Mayer bond orders larger than 0.100000
B(  0-As,  1-Cl) :   1.0393 B(  0-As,  2-Cl) :   1.0384 B(  0-As,  3-Cl) :   1.0384
B(  0-As,  4-Cl) :   0.9683 B(  0-As,  5-Cl) :   0.9683

FINAL SINGLE POINT ENERGY     -4535.670497793036

DIPOLE MOMENT
-------------
                                X             Y             Z
Electronic contribution:      0.00000      -2.23174       0.00000
Nuclear contribution   :      0.00000       1.63636       0.00000
                        -----------------------------------------
Total Dipole Moment    :      0.00000      -0.59538       0.00000
                        -----------------------------------------
Magnitude (a.u.)       :      0.59538
Magnitude (Debye)      :      1.51334

VIBRATIONAL FREQUENCIES
-----------------------

Scaling factor for frequencies =  1.000000000  (already applied!)

   0:         0.00 cm**-1
   1:         0.00 cm**-1
   2:         0.00 cm**-1
   3:         0.00 cm**-1
   4:         0.00 cm**-1
   5:         0.00 cm**-1
   6:      -112.24 cm**-1 ***imaginary mode***
   7:        68.84 cm**-1
   8:       182.68 cm**-1
   9:       188.22 cm**-1
  10:       195.11 cm**-1
  11:       225.16 cm**-1
  12:       323.80 cm**-1
  13:       349.55 cm**-1
  14:       372.01 cm**-1
  15:       433.31 cm**-1
  16:       464.20 cm**-1
  17:       502.20 cm**-1

IR SPECTRUM
-----------

 Mode   freq       eps      Int      T**2         TX        TY        TZ
       cm**-1   L/(mol*cm) km/mol    a.u.
----------------------------------------------------------------------------
  7:     68.84   0.000033    0.17  0.000149  ( 0.000000  0.012216 -0.000000)
  8:    182.68   0.000000    0.00  0.000000  ( 0.000000 -0.000000  0.000001)
  9:    188.22   0.000855    4.32  0.001418  (-0.000000  0.000000 -0.037659)
 10:    195.11   0.001742    8.80  0.002786  ( 0.052786 -0.000000 -0.000000)
 11:    225.16   0.001118    5.65  0.001550  ( 0.000000  0.039368  0.000000)
 12:    323.80   0.000010    0.05  0.000010  ( 0.000000 -0.003119 -0.000000)
 13:    349.55   0.013004   65.72  0.011610  ( 0.000000 -0.000000  0.107748)
 14:    372.01   0.005185   26.20  0.004350  (-0.000000 -0.065951  0.000000)
 15:    433.31   0.018315   92.56  0.013190  (-0.114848  0.000000 -0.000000)
 16:    464.20   0.014135   71.43  0.009503  (-0.000000 -0.000000  0.097482)
 17:    502.20   0.007358   37.19  0.004572  (-0.000000  0.067620 -0.000000)

--------------------------
THERMOCHEMISTRY AT 298.15K
--------------------------

Temperature         ... 298.15 K
Pressure            ... 1.00 atm
Total Mass          ... 252.19 AMU

Throughout the following assumptions are being made:
  (1) The electronic state is orbitally nondegenerate
  (2) There are no thermally accessible electronically excited states
  (3) Hindered rotations indicated by low frequency modes are not
      treated as such but are treated as vibrations and this may
      cause some error
  (4) All equations used are the standard statistical mechanics
      equations for an ideal gas
  (5) All vibrations are strictly harmonic

freq.      68.84  E(vib)   ...       0.50
freq.     182.68  E(vib)   ...       0.37
freq.     188.22  E(vib)   ...       0.36
freq.     195.11  E(vib)   ...       0.36
freq.     225.16  E(vib)   ...       0.33
freq.     323.80  E(vib)   ...       0.25
freq.     349.55  E(vib)   ...       0.23
freq.     372.01  E(vib)   ...       0.21
freq.     433.31  E(vib)   ...       0.17
freq.     464.20  E(vib)   ...       0.16
freq.     502.20  E(vib)   ...       0.14

------------
INNER ENERGY
------------

The inner energy is: U= E(el) + E(ZPE) + E(vib) + E(rot) + E(trans)
    E(el)   - is the total energy from the electronic structure calculation
              = E(kin-el) + E(nuc-el) + E(el-el) + E(nuc-nuc)
    E(ZPE)  - the the zero temperature vibrational energy from the frequency calculation
    E(vib)  - the the finite temperature correction to E(ZPE) due to population
              of excited vibrational states
    E(rot)  - is the rotational thermal energy
    E(trans)- is the translational thermal energy

Summary of contributions to the inner energy U:
Electronic energy                ...  -4535.67049779 Eh
Zero point energy                ...      0.00752956 Eh       4.72 kcal/mol
Thermal vibrational correction   ...      0.00489822 Eh       3.07 kcal/mol
Thermal rotational correction    ...      0.00141627 Eh       0.89 kcal/mol
Thermal translational correction ...      0.00141627 Eh       0.89 kcal/mol
-----------------------------------------------------------------------
Total thermal energy                  -4535.65523747 Eh

Summary of corrections to the electronic energy:
(perhaps to be used in another calculation)
Total thermal correction                  0.00773076 Eh       4.85 kcal/mol
Non-thermal (ZPE) correction              0.00752956 Eh       4.72 kcal/mol
-----------------------------------------------------------------------
Total correction                          0.01526032 Eh       9.58 kcal/mol

--------
ENTHALPY
--------

The enthalpy is H = U + kB*T
                kB is Boltzmann's constant
Total free energy                 ...  -4535.65523747 Eh
Thermal Enthalpy correction       ...      0.00094421 Eh       0.59 kcal/mol
-----------------------------------------------------------------------
Total Enthalpy                    ...  -4535.65429326 Eh

Note: Rotational entropy computed according to Herzberg
Infrared and Raman Spectra, Chapter V,1, Van Nostrand Reinhold, 1945
Point Group:  C2v, Symmetry Number:   2
Rotational constants in cm-1:     0.034618     0.034618     0.027397

Vibrational entropy computed according to the QRRHO of S. Grimme
Chem.Eur.J. 2012 18 9955

-------
ENTROPY
-------

The entropy contributions are T*S = T*(S(el)+S(vib)+S(rot)+S(trans))
     S(el)   - electronic entropy
     S(vib)  - vibrational entropy
     S(rot)  - rotational entropy
     S(trans)- translational entropy
The entropies will be listed as multiplied by the temperature to get
units of energy

Electronic entropy                ...      0.00000000 Eh      0.00 kcal/mol
Vibrational entropy               ...      0.00847784 Eh      5.32 kcal/mol
Rotational entropy                ...      0.01373025 Eh      8.62 kcal/mol
Translational entropy             ...      0.02018128 Eh     12.66 kcal/mol
-----------------------------------------------------------------------
Final entropy term                ...      0.04238938 Eh     26.60 kcal/mol

In case the symmetry of your molecule has not been determined correctly
or in case you have a reason to use a different symmetry number we print
out the resulting rotational entropy values for sn=1,12 :
 --------------------------------------------------------
|  sn= 1 | S(rot)=       0.01438471 Eh      9.03 kcal/mol|
|  sn= 2 | S(rot)=       0.01373025 Eh      8.62 kcal/mol|
|  sn= 3 | S(rot)=       0.01334742 Eh      8.38 kcal/mol|
|  sn= 4 | S(rot)=       0.01307580 Eh      8.21 kcal/mol|
|  sn= 5 | S(rot)=       0.01286511 Eh      8.07 kcal/mol|
|  sn= 6 | S(rot)=       0.01269296 Eh      7.96 kcal/mol|
|  sn= 7 | S(rot)=       0.01254742 Eh      7.87 kcal/mol|
|  sn= 8 | S(rot)=       0.01242134 Eh      7.79 kcal/mol|
|  sn= 9 | S(rot)=       0.01231013 Eh      7.72 kcal/mol|
|  sn=10 | S(rot)=       0.01221065 Eh      7.66 kcal/mol|
|  sn=11 | S(rot)=       0.01212066 Eh      7.61 kcal/mol|
|  sn=12 | S(rot)=       0.01203851 Eh      7.55 kcal/mol|
 --------------------------------------------------------

-------------------
GIBBS FREE ENERGY
-------------------

The Gibbs free energy is G = H - T*S

Total enthalpy                    ...  -4535.65429326 Eh
Total entropy correction          ...     -0.04238938 Eh    -26.60 kcal/mol
-----------------------------------------------------------------------
Final Gibbs free energy         ...  -4535.69668264 Eh

For completeness - the Gibbs free energy minus the electronic energy
G-E(el)                           ...     -0.02618484 Eh    -16.43 kcal/mol

                             ****ORCA TERMINATED NORMALLY****
TOTAL RUN TIME: 0 days 0 hours 3 minutes 38 seconds 181 msec
