                         Program Version 5.0.4 -  RELEASE  -
|  1> ! PBE def2-TZVP OptTS
|  2>
|  3> # %geom
|  4> #   Calc_Hess true
|  5> # end
|  6>
|  7> %geom
|  8>   inhess read
|  9>   inhessname "AsCl5_ts_guess.hess"
| 10> end
| 11>
| 12> * xyz 0 1
| 13> As  0.0000  0.0000  0.0000  # Arsenic (P)
| 14> Cl  0.0000  2.1060  0.0000  # Equatorial Chlorine (Cl1)
| 15> Cl  2.0830 -0.5581  0.0000  # Equatorial Chlorine (Cl2)
| 16> Cl -2.0830 -0.5581  0.0000  # Equatorial Chlorine (Cl3)
| 17> Cl  0.0000  0.5581  2.0830  # Axial Chlorine (Cl4)
| 18> Cl  0.0000  0.5581 -2.0830  # Axial Chlorine (Cl5)
| 19> **                         ****END OF INPUT****
 Total Charge           Charge          ....    0
 Multiplicity           Mult            ....    1
 Number of Electrons    NEL             ....  118
FINAL SINGLE POINT ENERGY     -4535.670497840923
FINAL SINGLE POINT ENERGY     -4535.716794570048
FINAL SINGLE POINT ENERGY     -4535.740948359517
FINAL SINGLE POINT ENERGY     -4535.751241911136
FINAL SINGLE POINT ENERGY     -4535.752134854200
FINAL SINGLE POINT ENERGY     -4535.752208937541
FINAL SINGLE POINT ENERGY     -4535.752238554019
FINAL SINGLE POINT ENERGY     -4535.752257574110
FINAL SINGLE POINT ENERGY     -4535.752260009847
                    ***********************HURRAY********************

CARTESIAN COORDINATES (ANGSTROEM)
---------------------------------
  As    -0.000022    0.350931    0.000000
  Cl     0.000350    2.529298   -0.000000
  Cl     1.886319   -0.738231    0.000000
  Cl    -1.886241   -0.738571    0.000000
  Cl    -0.000203    0.351287    2.245129
  Cl    -0.000203    0.351286   -2.245130

 Multiplicity           Mult            ....    1
 Number of Electrons    NEL             ....  118
 Basis Dimension        Dim             ....  233

ORBITAL ENERGIES
----------------

  NO   OCC          E(Eh)            E(eV)
   0   2.0000    -424.301120    -11545.8205
   1   2.0000    -100.700865     -2740.2098
   2   2.0000    -100.700854     -2740.2095
   3   2.0000    -100.700814     -2740.2085
   4   2.0000    -100.670963     -2739.3962
   5   2.0000    -100.670957     -2739.3960
   6   2.0000     -53.367107     -1452.1928
   7   2.0000     -47.749391     -1299.3270
   8   2.0000     -47.749391     -1299.3270
   9   2.0000     -47.748921     -1299.3142
  10   2.0000      -9.214705      -250.7449
  11   2.0000      -9.214692      -250.7445
  12   2.0000      -9.214654      -250.7435
  13   2.0000      -9.185289      -249.9444
  14   2.0000      -9.185270      -249.9439
  15   2.0000      -7.038024      -191.5144
  16   2.0000      -7.038011      -191.5140
  17   2.0000      -7.037972      -191.5130
  18   2.0000      -7.028681      -191.2601
  19   2.0000      -7.028670      -191.2598
  20   2.0000      -7.028629      -191.2587
  21   2.0000      -7.027182      -191.2194
  22   2.0000      -7.027170      -191.2190
  23   2.0000      -7.027134      -191.2181
  24   2.0000      -7.008168      -190.7020
  25   2.0000      -7.008162      -190.7018
  26   2.0000      -6.998661      -190.4432
  27   2.0000      -6.998661      -190.4432
  28   2.0000      -6.998660      -190.4432
  29   2.0000      -6.998660      -190.4432
  30   2.0000      -6.899990      -187.7583
  31   2.0000      -5.002732      -136.1313
  32   2.0000      -5.002722      -136.1310
  33   2.0000      -5.000465      -136.0696
  34   2.0000      -1.674891       -45.5761
  35   2.0000      -1.674865       -45.5754
  36   2.0000      -1.672793       -45.5190
  37   2.0000      -1.672630       -45.5146
  38   2.0000      -1.672601       -45.5138
  39   2.0000      -0.847395       -23.0588
  40   2.0000      -0.786147       -21.3921
  41   2.0000      -0.786121       -21.3914
  42   2.0000      -0.762167       -20.7396
  43   2.0000      -0.743521       -20.2322
  44   2.0000      -0.594642       -16.1810
  45   2.0000      -0.441213       -12.0060
  46   2.0000      -0.441200       -12.0057
  47   2.0000      -0.432420       -11.7667
  48   2.0000      -0.348796        -9.4912
  49   2.0000      -0.348788        -9.4910
  50   2.0000      -0.336642        -9.1605
  51   2.0000      -0.336618        -9.1598
  52   2.0000      -0.327488        -8.9114
  53   2.0000      -0.318160        -8.6576
  54   2.0000      -0.305054        -8.3009
  55   2.0000      -0.293685        -7.9916
  56   2.0000      -0.293684        -7.9916
  57   2.0000      -0.276907        -7.5350
  58   2.0000      -0.276874        -7.5341
  59   0.0000      -0.199701        -5.4341
  60   0.0000      -0.089017        -2.4223
  61   0.0000      -0.088977        -2.4212
  62   0.0000      -0.047909        -1.3037
  63   0.0000       0.111231         3.0268

MULLIKEN ATOMIC CHARGES
-----------------------
   0 As:    0.785039
   1 Cl:   -0.130478
   2 Cl:   -0.130397
   3 Cl:   -0.130413
   4 Cl:   -0.196876
   5 Cl:   -0.196876
Sum of atomic charges:   -0.0000000

LOEWDIN ATOMIC CHARGES
----------------------
   0 As:   -0.373090
   1 Cl:    0.115453
   2 Cl:    0.115633
   3 Cl:    0.115577
   4 Cl:    0.013214
   5 Cl:    0.013214

  Mayer bond orders larger than 0.100000
B(  0-As,  1-Cl) :   1.0185 B(  0-As,  2-Cl) :   1.0186 B(  0-As,  3-Cl) :   1.0186
B(  0-As,  4-Cl) :   0.9361 B(  0-As,  5-Cl) :   0.9361

FINAL SINGLE POINT ENERGY     -4535.752260129972

DIPOLE MOMENT
-------------
                                X             Y             Z
Electronic contribution:      0.00003      -0.00090       0.00000
Nuclear contribution   :      0.00010       0.00032      -0.00000
                        -----------------------------------------
Total Dipole Moment    :      0.00014      -0.00058       0.00000
                        -----------------------------------------
Magnitude (a.u.)       :      0.00059
Magnitude (Debye)      :      0.00151

Rotational constants in cm-1:     0.033404     0.027650     0.027644
Rotational constants in MHz :  1001.421834   828.930949   828.756959

                             ****ORCA TERMINATED NORMALLY****
TOTAL RUN TIME: 0 days 0 hours 3 minutes 13 seconds 947 msec
