                         Program Version 5.0.4 -  RELEASE  -
|  1> ! PBE def2-TZVP OptTS
|  2>
|  3> # %geom
|  4> #   Calc_Hess true
|  5> # end
|  6>
|  7> %geom
|  8>   inhess read
|  9>   inhessname "AsF5_ts_guess.hess"
| 10> end
| 11>
| 12> * xyz 0 1
| 13> As  0.0000  0.0000  0.0000  # Arsenic (As)
| 14> F  0.0000  1.7190  0.0000  # Equatorial Fluorine (F1)
| 15> F  1.6357 -0.4384  0.0000  # Equatorial Fluorine (F2)
| 16> F -1.6357 -0.4384  0.0000  # Equatorial Fluorine (F3)
| 17> F  0.0000  0.4384  1.6357  # Axial Fluorine (F4)
| 18> F  0.0000  0.4384 -1.6357  # Axial Fluorine (F5)
| 19> **                         ****END OF INPUT****
 Total Charge           Charge          ....    0
 Multiplicity           Mult            ....    1
 Number of Electrons    NEL             ....   78
FINAL SINGLE POINT ENERGY     -2734.525211921022
FINAL SINGLE POINT ENERGY     -2734.566378906260
FINAL SINGLE POINT ENERGY     -2734.589827329617
FINAL SINGLE POINT ENERGY     -2734.598752278262
FINAL SINGLE POINT ENERGY     -2734.599191665682
FINAL SINGLE POINT ENERGY     -2734.599232084890
FINAL SINGLE POINT ENERGY     -2734.599248251679
FINAL SINGLE POINT ENERGY     -2734.599256774661
FINAL SINGLE POINT ENERGY     -2734.599257717709
                    ***********************HURRAY********************

CARTESIAN COORDINATES (ANGSTROEM)
---------------------------------
  As    -0.000070    0.286431   -0.000000
  F      0.002460    1.997159   -0.000001
  F      1.481706   -0.567862    0.000001
  F     -1.481017   -0.570245    0.000001
  F     -0.001540    0.286760    1.730672
  F     -0.001540    0.286757   -1.730672

 Multiplicity           Mult            ....    1
 Number of Electrons    NEL             ....   78
 Basis Dimension        Dim             ....  203

ORBITAL ENERGIES
----------------

  NO   OCC          E(Eh)            E(eV)
   0   2.0000    -424.330801    -11546.6281
   1   2.0000     -53.394978     -1452.9512
   2   2.0000     -47.777174     -1300.0830
   3   2.0000     -47.777169     -1300.0829
   4   2.0000     -47.776646     -1300.0686
   5   2.0000     -24.317774      -661.7203
   6   2.0000     -24.317647      -661.7168
   7   2.0000     -24.317515      -661.7132
   8   2.0000     -24.290362      -660.9744
   9   2.0000     -24.290353      -660.9741
  10   2.0000      -6.934732      -188.7037
  11   2.0000      -5.037887      -137.0879
  12   2.0000      -5.037866      -137.0873
  13   2.0000      -5.035035      -137.0103
  14   2.0000      -1.712683       -46.6045
  15   2.0000      -1.712433       -46.5977
  16   2.0000      -1.712410       -46.5970
  17   2.0000      -1.707307       -46.4582
  18   2.0000      -1.707290       -46.4577
  19   2.0000      -1.183261       -32.1982
  20   2.0000      -1.138114       -30.9697
  21   2.0000      -1.138020       -30.9671
  22   2.0000      -1.119552       -30.4646
  23   2.0000      -1.093550       -29.7570
  24   2.0000      -0.655922       -17.8486
  25   2.0000      -0.525555       -14.3011
  26   2.0000      -0.525546       -14.3008
  27   2.0000      -0.518588       -14.1115
  28   2.0000      -0.443983       -12.0814
  29   2.0000      -0.443961       -12.0808
  30   2.0000      -0.433928       -11.8078
  31   2.0000      -0.433809       -11.8045
  32   2.0000      -0.427125       -11.6227
  33   2.0000      -0.414773       -11.2865
  34   2.0000      -0.403095       -10.9688
  35   2.0000      -0.390384       -10.6229
  36   2.0000      -0.390375       -10.6227
  37   2.0000      -0.371960       -10.1215
  38   2.0000      -0.371769       -10.1163
  39   0.0000      -0.153329        -4.1723
  40   0.0000      -0.015192        -0.4134
  41   0.0000      -0.014616        -0.3977
  42   0.0000       0.069779         1.8988
  43   0.0000       0.182555         4.9676

MULLIKEN ATOMIC CHARGES
-----------------------
   0 As:    1.308387
   1 F :   -0.242557
   2 F :   -0.242438
   3 F :   -0.242652
   4 F :   -0.290370
   5 F :   -0.290370
Sum of atomic charges:   -0.0000000

LOEWDIN ATOMIC CHARGES
----------------------
   0 As:    0.447647
   1 F :   -0.076108
   2 F :   -0.075819
   3 F :   -0.076277
   4 F :   -0.109722
   5 F :   -0.109722

  Mayer bond orders larger than 0.100000
B(  0-As,  1-F ) :   1.0564 B(  0-As,  2-F ) :   1.0567 B(  0-As,  3-F ) :   1.0561
B(  0-As,  4-F ) :   1.0396 B(  0-As,  5-F ) :   1.0396

FINAL SINGLE POINT ENERGY     -2734.599257678281

DIPOLE MOMENT
-------------
                                X             Y             Z
Electronic contribution:      0.00033      -0.00060      -0.00000
Nuclear contribution   :      0.00022       0.00022       0.00000
                        -----------------------------------------
Total Dipole Moment    :      0.00055      -0.00038      -0.00000
                        -----------------------------------------
Magnitude (a.u.)       :      0.00067
Magnitude (Debye)      :      0.00172

Rotational constants in cm-1:     0.101073     0.085544     0.085426
Rotational constants in MHz :  3030.093227  2564.551688  2561.004946

                             ****ORCA TERMINATED NORMALLY****
TOTAL RUN TIME: 0 days 0 hours 2 minutes 14 seconds 400 msec
