                         Program Version 5.0.4 -  RELEASE  -
|  1> ! PBE def2-TZVP Freq
|  2>
|  3> * xyz 0 1
|  4> Sb  0.0000  0.0000  0.0000  # Antimony (Sb)
|  5> Cl  0.0000  2.2770  0.0000  # Equatorial Chlorine (Cl1)
|  6> Cl  2.2289 -0.5972  0.0000  # Equatorial Chlorine (Cl2)
|  7> Cl -2.2289 -0.5972  0.0000  # Equatorial Chlorine (Cl3)
|  8> Cl  0.0000 -0.5972  2.2289  # Axial Chlorine (Cl4)
|  9> Cl  0.0000 -0.5972 -2.2289  # Axial Chlorine (Cl5)
| 10> *
| 11>
| 12>                          ****END OF INPUT****

CARTESIAN COORDINATES (ANGSTROEM)
---------------------------------
  Sb     0.000000    0.000000    0.000000
  Cl     0.000000    2.277000    0.000000
  Cl     2.228900   -0.597200    0.000000
  Cl    -2.228900   -0.597200    0.000000
  Cl     0.000000   -0.597200    2.228900
  Cl     0.000000   -0.597200   -2.228900

 Total Charge           Charge          ....    0
 Multiplicity           Mult            ....    1
 Number of Electrons    NEL             ....  108
 Basis Dimension        Dim             ....  235

ORBITAL ENERGIES
----------------

  NO   OCC          E(Eh)            E(eV)
   0   2.0000    -100.704753     -2740.3156
   1   2.0000    -100.678811     -2739.6097
   2   2.0000    -100.678811     -2739.6097
   3   2.0000    -100.678811     -2739.6097
   4   2.0000    -100.678810     -2739.6097
   5   2.0000      -9.219146      -250.8657
   6   2.0000      -9.193893      -250.1785
   7   2.0000      -9.193893      -250.1785
   8   2.0000      -9.193893      -250.1785
   9   2.0000      -9.193889      -250.1784
  10   2.0000      -7.041442      -191.6074
  11   2.0000      -7.032788      -191.3719
  12   2.0000      -7.032788      -191.3719
  13   2.0000      -7.015904      -190.9125
  14   2.0000      -7.015903      -190.9124
  15   2.0000      -7.015903      -190.9124
  16   2.0000      -7.015901      -190.9124
  17   2.0000      -7.008188      -190.7025
  18   2.0000      -7.008185      -190.7024
  19   2.0000      -7.008185      -190.7024
  20   2.0000      -7.008185      -190.7024
  21   2.0000      -7.006995      -190.6700
  22   2.0000      -7.006995      -190.6700
  23   2.0000      -7.006995      -190.6700
  24   2.0000      -7.006992      -190.6699
  25   2.0000      -5.631424      -153.2388
  26   2.0000      -3.900884      -106.1485
  27   2.0000      -3.898492      -106.0834
  28   2.0000      -3.898492      -106.0834
  29   2.0000      -1.342332       -36.5267
  30   2.0000      -1.340623       -36.4802
  31   2.0000      -1.339431       -36.4478
  32   2.0000      -1.339431       -36.4478
  33   2.0000      -1.337067       -36.3834
  34   2.0000      -0.826674       -22.4949
  35   2.0000      -0.781373       -21.2622
  36   2.0000      -0.770349       -20.9623
  37   2.0000      -0.770349       -20.9623
  38   2.0000      -0.744584       -20.2611
  39   2.0000      -0.564226       -15.3534
  40   2.0000      -0.421054       -11.4575
  41   2.0000      -0.421054       -11.4575
  42   2.0000      -0.420972       -11.4552
  43   2.0000      -0.348235        -9.4760
  44   2.0000      -0.338474        -9.2103
  45   2.0000      -0.338474        -9.2103
  46   2.0000      -0.328776        -8.9464
  47   2.0000      -0.327332        -8.9072
  48   2.0000      -0.313032        -8.5180
  49   2.0000      -0.313032        -8.5180
  50   2.0000      -0.299858        -8.1596
  51   2.0000      -0.299191        -8.1414
  52   2.0000      -0.299191        -8.1414
  53   2.0000      -0.272350        -7.4110
  54   0.0000      -0.186757        -5.0819
  55   0.0000      -0.092182        -2.5084
  56   0.0000      -0.039290        -1.0691
  57   0.0000      -0.039290        -1.0691
  58   0.0000       0.078837         2.1453

MULLIKEN ATOMIC CHARGES
-----------------------
   0 Sb:    1.033775
   1 Cl:   -0.188131
   2 Cl:   -0.211411
   3 Cl:   -0.211411
   4 Cl:   -0.211411
   5 Cl:   -0.211411
Sum of atomic charges:   -0.0000000

LOEWDIN ATOMIC CHARGES
----------------------
   0 Sb:   -0.423111
   1 Cl:    0.129550
   2 Cl:    0.073390
   3 Cl:    0.073390
   4 Cl:    0.073390
   5 Cl:    0.073390

  Mayer bond orders larger than 0.100000
B(  0-Sb,  1-Cl) :   1.0530 B(  0-Sb,  2-Cl) :   1.0074 B(  0-Sb,  3-Cl) :   1.0074
B(  0-Sb,  4-Cl) :   1.0074 B(  0-Sb,  5-Cl) :   1.0074

FINAL SINGLE POINT ENERGY     -2540.502075104792

DIPOLE MOMENT
-------------
                                X             Y             Z
Electronic contribution:      0.00000       1.09829       0.00000
Nuclear contribution   :      0.00000      -0.88626       0.00000
                        -----------------------------------------
Total Dipole Moment    :      0.00000       0.21203       0.00000
                        -----------------------------------------
Magnitude (a.u.)       :      0.21203
Magnitude (Debye)      :      0.53895

VIBRATIONAL FREQUENCIES
-----------------------

Scaling factor for frequencies =  1.000000000  (already applied!)

   0:         0.00 cm**-1
   1:         0.00 cm**-1
   2:         0.00 cm**-1
   3:         0.00 cm**-1
   4:         0.00 cm**-1
   5:         0.00 cm**-1
   6:       -78.02 cm**-1 ***imaginary mode***
   7:       106.67 cm**-1
   8:       106.67 cm**-1
   9:       139.58 cm**-1
  10:       174.29 cm**-1
  11:       174.29 cm**-1
  12:       202.85 cm**-1
  13:       322.85 cm**-1
  14:       371.69 cm**-1
  15:       407.70 cm**-1
  16:       407.70 cm**-1
  17:       408.45 cm**-1

IR SPECTRUM
-----------

 Mode   freq       eps      Int      T**2         TX        TY        TZ
       cm**-1   L/(mol*cm) km/mol    a.u.
----------------------------------------------------------------------------
  7:    106.67   0.000141    0.71  0.000413  (-0.000264  0.000000  0.020319)
  8:    106.67   0.000141    0.71  0.000413  ( 0.020319  0.000000  0.000264)
  9:    139.58   0.001556    7.87  0.003480  ( 0.000000 -0.058990  0.000000)
 10:    174.29   0.002584   13.06  0.004626  (-0.064162 -0.000000  0.022576)
 11:    174.29   0.002584   13.06  0.004626  ( 0.022576  0.000000  0.064162)
 12:    202.85   0.000000    0.00  0.000000  (-0.000000 -0.000000 -0.000000)
 13:    322.85   0.000000    0.00  0.000000  ( 0.000000  0.000000  0.000000)
 14:    371.69   0.000000    0.00  0.000000  (-0.000000  0.000499  0.000000)
 15:    407.70   0.017206   86.95  0.013170  (-0.000602 -0.000000  0.114760)
 16:    407.70   0.017206   86.95  0.013170  (-0.114760  0.000001 -0.000602)
 17:    408.45   0.011018   55.68  0.008418  (-0.000001 -0.091750 -0.000000)

--------------------------
THERMOCHEMISTRY AT 298.15K
--------------------------

Temperature         ... 298.15 K
Pressure            ... 1.00 atm
Total Mass          ... 299.01 AMU

Throughout the following assumptions are being made:
  (1) The electronic state is orbitally nondegenerate
  (2) There are no thermally accessible electronically excited states
  (3) Hindered rotations indicated by low frequency modes are not
      treated as such but are treated as vibrations and this may
      cause some error
  (4) All equations used are the standard statistical mechanics
      equations for an ideal gas
  (5) All vibrations are strictly harmonic

freq.     106.67  E(vib)   ...       0.45
freq.     106.67  E(vib)   ...       0.45
freq.     139.58  E(vib)   ...       0.42
freq.     174.29  E(vib)   ...       0.38
freq.     174.29  E(vib)   ...       0.38
freq.     202.85  E(vib)   ...       0.35
freq.     322.85  E(vib)   ...       0.25
freq.     371.69  E(vib)   ...       0.21
freq.     407.70  E(vib)   ...       0.19
freq.     407.70  E(vib)   ...       0.19
freq.     408.45  E(vib)   ...       0.19

------------
INNER ENERGY
------------

The inner energy is: U= E(el) + E(ZPE) + E(vib) + E(rot) + E(trans)
    E(el)   - is the total energy from the electronic structure calculation
              = E(kin-el) + E(nuc-el) + E(el-el) + E(nuc-nuc)
    E(ZPE)  - the the zero temperature vibrational energy from the frequency calculation
    E(vib)  - the the finite temperature correction to E(ZPE) due to population
              of excited vibrational states
    E(rot)  - is the rotational thermal energy
    E(trans)- is the translational thermal energy

Summary of contributions to the inner energy U:
Electronic energy                ...  -2540.50207510 Eh
Zero point energy                ...      0.00643067 Eh       4.04 kcal/mol
Thermal vibrational correction   ...      0.00550167 Eh       3.45 kcal/mol
Thermal rotational correction    ...      0.00141627 Eh       0.89 kcal/mol
Thermal translational correction ...      0.00141627 Eh       0.89 kcal/mol
-----------------------------------------------------------------------
Total thermal energy                  -2540.48731022 Eh

Summary of corrections to the electronic energy:
(perhaps to be used in another calculation)
Total thermal correction                  0.00833421 Eh       5.23 kcal/mol
Non-thermal (ZPE) correction              0.00643067 Eh       4.04 kcal/mol
-----------------------------------------------------------------------
Total correction                          0.01476488 Eh       9.27 kcal/mol

--------
ENTHALPY
--------

The enthalpy is H = U + kB*T
                kB is Boltzmann's constant
Total free energy                 ...  -2540.48731022 Eh
Thermal Enthalpy correction       ...      0.00094421 Eh       0.59 kcal/mol
-----------------------------------------------------------------------
Total Enthalpy                    ...  -2540.48636601 Eh

Note: Rotational entropy computed according to Herzberg
Infrared and Raman Spectra, Chapter V,1, Van Nostrand Reinhold, 1945
Point Group:  C4v, Symmetry Number:   4
Rotational constants in cm-1:     0.028738     0.028738     0.023928

Vibrational entropy computed according to the QRRHO of S. Grimme
Chem.Eur.J. 2012 18 9955

-------
ENTROPY
-------

The entropy contributions are T*S = T*(S(el)+S(vib)+S(rot)+S(trans))
     S(el)   - electronic entropy
     S(vib)  - vibrational entropy
     S(rot)  - rotational entropy
     S(trans)- translational entropy
The entropies will be listed as multiplied by the temperature to get
units of energy

Electronic entropy                ...      0.00000000 Eh      0.00 kcal/mol
Vibrational entropy               ...      0.00997363 Eh      6.26 kcal/mol
Rotational entropy                ...      0.01331548 Eh      8.36 kcal/mol
Translational entropy             ...      0.02042252 Eh     12.82 kcal/mol
-----------------------------------------------------------------------
Final entropy term                ...      0.04371163 Eh     27.43 kcal/mol

In case the symmetry of your molecule has not been determined correctly
or in case you have a reason to use a different symmetry number we print
out the resulting rotational entropy values for sn=1,12 :
 --------------------------------------------------------
|  sn= 1 | S(rot)=       0.01462439 Eh      9.18 kcal/mol|
|  sn= 2 | S(rot)=       0.01396994 Eh      8.77 kcal/mol|
|  sn= 3 | S(rot)=       0.01358711 Eh      8.53 kcal/mol|
|  sn= 4 | S(rot)=       0.01331548 Eh      8.36 kcal/mol|
|  sn= 5 | S(rot)=       0.01310479 Eh      8.22 kcal/mol|
|  sn= 6 | S(rot)=       0.01293265 Eh      8.12 kcal/mol|
|  sn= 7 | S(rot)=       0.01278710 Eh      8.02 kcal/mol|
|  sn= 8 | S(rot)=       0.01266103 Eh      7.94 kcal/mol|
|  sn= 9 | S(rot)=       0.01254982 Eh      7.88 kcal/mol|
|  sn=10 | S(rot)=       0.01245034 Eh      7.81 kcal/mol|
|  sn=11 | S(rot)=       0.01236035 Eh      7.76 kcal/mol|
|  sn=12 | S(rot)=       0.01227819 Eh      7.70 kcal/mol|
 --------------------------------------------------------

-------------------
GIBBS FREE ENERGY
-------------------

The Gibbs free energy is G = H - T*S

Total enthalpy                    ...  -2540.48636601 Eh
Total entropy correction          ...     -0.04371163 Eh    -27.43 kcal/mol
-----------------------------------------------------------------------
Final Gibbs free energy         ...  -2540.53007764 Eh

For completeness - the Gibbs free energy minus the electronic energy
G-E(el)                           ...     -0.02800254 Eh    -17.57 kcal/mol

                             ****ORCA TERMINATED NORMALLY****
TOTAL RUN TIME: 0 days 0 hours 2 minutes 57 seconds 154 msec
