                         Program Version 5.0.4 -  RELEASE  -
|  1> ! PBE def2-TZVP
|  2>
|  3> * xyz 0 1
|  4>   Sb    -0.000000    0.000127    0.000000
|  5>   Cl    -0.000000    2.337519   -0.000000
|  6>   Cl     2.023604   -1.169297    0.000000
|  7>   Cl    -2.023604   -1.169297    0.000000
|  8>   Cl     0.000000    0.000474    2.374368
|  9>   Cl     0.000000    0.000474   -2.374368
| 10> *
| 11>
| 12>                          ****END OF INPUT****

CARTESIAN COORDINATES (ANGSTROEM)
---------------------------------
  Sb    -0.000000    0.000127    0.000000
  Cl    -0.000000    2.337519   -0.000000
  Cl     2.023604   -1.169297    0.000000
  Cl    -2.023604   -1.169297    0.000000
  Cl     0.000000    0.000474    2.374368
  Cl     0.000000    0.000474   -2.374368

 Total Charge           Charge          ....    0
 Multiplicity           Mult            ....    1
 Number of Electrons    NEL             ....  108
 Basis Dimension        Dim             ....  235

ORBITAL ENERGIES
----------------

  NO   OCC          E(Eh)            E(eV)
   0   2.0000    -100.695080     -2740.0524
   1   2.0000    -100.695079     -2740.0524
   2   2.0000    -100.695060     -2740.0519
   3   2.0000    -100.675209     -2739.5117
   4   2.0000    -100.675208     -2739.5117
   5   2.0000      -9.208994      -250.5895
   6   2.0000      -9.208993      -250.5894
   7   2.0000      -9.208972      -250.5889
   8   2.0000      -9.189399      -250.0563
   9   2.0000      -9.189396      -250.0562
  10   2.0000      -7.031451      -191.3355
  11   2.0000      -7.031447      -191.3354
  12   2.0000      -7.031428      -191.3349
  13   2.0000      -7.023230      -191.1118
  14   2.0000      -7.023229      -191.1118
  15   2.0000      -7.023203      -191.1111
  16   2.0000      -7.022054      -191.0798
  17   2.0000      -7.022053      -191.0798
  18   2.0000      -7.022037      -191.0794
  19   2.0000      -7.011712      -190.7984
  20   2.0000      -7.011707      -190.7982
  21   2.0000      -7.003084      -190.5636
  22   2.0000      -7.003083      -190.5636
  23   2.0000      -7.003083      -190.5636
  24   2.0000      -7.003081      -190.5635
  25   2.0000      -5.636065      -153.3651
  26   2.0000      -3.904329      -106.2422
  27   2.0000      -3.904326      -106.2421
  28   2.0000      -3.902474      -106.1917
  29   2.0000      -1.344444       -36.5842
  30   2.0000      -1.344438       -36.5840
  31   2.0000      -1.343595       -36.5611
  32   2.0000      -1.341539       -36.5051
  33   2.0000      -1.341526       -36.5048
  34   2.0000      -0.816298       -22.2126
  35   2.0000      -0.775709       -21.1081
  36   2.0000      -0.775703       -21.1079
  37   2.0000      -0.761327       -20.7168
  38   2.0000      -0.746392       -20.3104
  39   2.0000      -0.567007       -15.4290
  40   2.0000      -0.418102       -11.3771
  41   2.0000      -0.418089       -11.3768
  42   2.0000      -0.414933       -11.2909
  43   2.0000      -0.339756        -9.2452
  44   2.0000      -0.339743        -9.2449
  45   2.0000      -0.330467        -8.9925
  46   2.0000      -0.330446        -8.9919
  47   2.0000      -0.329758        -8.9732
  48   2.0000      -0.318910        -8.6780
  49   2.0000      -0.309938        -8.4338
  50   2.0000      -0.301076        -8.1927
  51   2.0000      -0.301075        -8.1927
  52   2.0000      -0.286965        -7.8087
  53   2.0000      -0.286936        -7.8079
  54   0.0000      -0.203523        -5.5382
  55   0.0000      -0.085748        -2.3333
  56   0.0000      -0.085650        -2.3307
  57   0.0000      -0.040910        -1.1132
  58   0.0000       0.078781         2.1437

MULLIKEN ATOMIC CHARGES
-----------------------
   0 Sb:    0.997223
   1 Cl:   -0.186069
   2 Cl:   -0.186049
   3 Cl:   -0.186049
   4 Cl:   -0.219529
   5 Cl:   -0.219529
Sum of atomic charges:   -0.0000000

LOEWDIN ATOMIC CHARGES
----------------------
   0 Sb:   -0.314175
   1 Cl:    0.084384
   2 Cl:    0.084514
   3 Cl:    0.084514
   4 Cl:    0.030382
   5 Cl:    0.030382

  Mayer bond orders larger than 0.100000
B(  0-Sb,  1-Cl) :   1.0124 B(  0-Sb,  2-Cl) :   1.0125 B(  0-Sb,  3-Cl) :   1.0125
B(  0-Sb,  4-Cl) :   0.9657 B(  0-Sb,  5-Cl) :   0.9657

FINAL SINGLE POINT ENERGY     -2540.510700318791

DIPOLE MOMENT
-------------
                                X             Y             Z
Electronic contribution:      0.00000       0.00582       0.00000
Nuclear contribution   :      0.00000      -0.00604       0.00000
                        -----------------------------------------
Total Dipole Moment    :      0.00000      -0.00022       0.00000
                        -----------------------------------------
Magnitude (a.u.)       :      0.00022
Magnitude (Debye)      :      0.00056

Rotational constants in cm-1:     0.029014     0.024428     0.024417
Rotational constants in MHz :   869.814530   732.328434   732.006519

                             ****ORCA TERMINATED NORMALLY****
TOTAL RUN TIME: 0 days 0 hours 0 minutes 18 seconds 901 msec
