                         Program Version 5.0.4 -  RELEASE  -
|  1> # input to generate an atomic fitting density for Sb
|  2> # this file is used internally by ORCA
|  3> #
|  4> # atomic ground state (S=4): 1s2 2s2 2p6 3s2 3p6 4s2 3d10 4p6 5s2 4d10 5p3
|  5> #
|  6> ! RHF AllowRHF def2-SVP def2/J  NoMulliken NoLoewdin NoMayer NoPrintMOs
|  7>
|  8> %output print[p_atomdensfit] 2 end
|  9>
| 10> %scf
| 11>   guess hcore
| 12>   maxiter 1000
| 13>   maxdisk 500000
| 14>   SCFMode Conventional
| 15>   lshift 1.000000
| 16>   hftyp rohf
| 17>   rohf_case sahf
| 18>   rohf_numop   2
| 19>   rohf_norb[1] 3
| 20>   rohf_nel[1]  3
| 21> end
| 22>
| 23> %basis
| 24>   NewECP 51
| 25>     N_core 28
| 26>     lmax f
| 27>     s 4
| 28>       1      16.3308650000    281.0715810000  2
| 29>       2       8.5565420000     61.7166040000  2
| 30>       3      14.4449780000     15.3668010000  2
| 31>       4      14.4492950000     20.2961380000  2
| 32>     p 6
| 33>       1      14.4703370000     67.4573800000  2
| 34>       2      13.8161940000    134.9335030000  2
| 35>       3       8.4249240000     14.7163440000  2
| 36>       4       8.0927280000     29.5185120000  2
| 37>       5      14.4449780000     15.3668010000  2
| 38>       6      14.4492950000     20.2961380000  2
| 39>     d 6
| 40>       1      14.8863310000     35.4478150000  2
| 41>       2      15.1463190000     53.1434660000  2
| 42>       3       5.9082670000      9.1792230000  2
| 43>       4       5.5943220000     13.2402530000  2
| 44>       5      14.4449780000     15.3668010000  2
| 45>       6      14.4492950000     20.2961380000  2
| 46>     f 2
| 47>       1      14.4449780000    -15.3668010000  2
| 48>       2      14.4492950000    -20.2961380000  2
| 49>   end
| 50>   NewGTO 51
| 51>     s 4
| 52>      1    1612.4199933000      0.0007372999
| 53>      2     238.8445209700      0.0034600912
| 54>      3      23.9981188090     -0.1275872306
| 55>      4      15.1931242130      1.1209761019
| 56>     s 2
| 57>      1      11.7364097330      0.5460510418
| 58>      2       6.5259774794      0.4696473608
| 59>     s 1
| 60>      1       2.0247451872      1.0000000000
| 61>     s 1
| 62>      1       0.9711341859      1.0000000000
| 63>     s 1
| 64>      1       0.2425433400      1.0000000000
| 65>     s 1
| 66>      1       0.0922066082      1.0000000000
| 67>     p 3
| 68>      1     215.6839335400      0.0012613511
| 69>      2      16.3744790880      0.3569688834
| 70>      3       9.7216283345     -1.3183963636
| 71>     p 3
| 72>      1       2.7982643154      0.4267498157
| 73>      2       1.4711045033      0.4624851698
| 74>      3       0.7516538530      0.1717797266
| 75>     p 1
| 76>      1       0.3316869985      1.0000000000
| 77>     p 1
| 78>      1       0.1393160637      1.0000000000
| 79>     p 1
| 80>      1       0.0563993075      1.0000000000
| 81>     d 6
| 82>      1     115.9031225300      0.0005820965
| 83>      2      30.4742337200      0.0065077945
| 84>      3      18.2284182390     -0.0115713038
| 85>      4       4.3291456646      0.2228904538
| 86>      5       2.1294818496      0.4682584302
| 87>      6       0.9968263669      0.4221557564
| 88>     d 1
| 89>      1       0.4334723986      1.0000000000
| 90>     d 1
| 91>      1       0.1400000000      1.0000000000
| 92>   end
| 93>   NewAuxGTO 51
| 94>     S 1
| 95>      1 1310.72 1.0
| 96>     S 1
| 97>      1  655.36 1.0
| 98>     S 1
| 99>      1  327.68 1.0
|100>     S 1
|101>      1  163.84 1.0
|102>     S 1
|103>      1   81.82 1.0
|104>     S 1
|105>      1   40.96 1.0
|106>     S 1
|107>      1   20.48 1.0
|108>     S 1
|109>      1   10.24 1.0
|110>     S 1
|111>      1    5.12 1.0
|112>     S 1
|113>      1    2.56 1.0
|114>     S 1
|115>      1    1.28 1.0
|116>     S 1
|117>      1    0.64 1.0
|118>     S 1
|119>      1    0.32 1.0
|120>     S 1
|121>      1    0.16 1.0
|122>     S 1
|123>      1    0.08 1.0
|124>     S 1
|125>      1    0.04 1.0
|126>     S 1
|127>      1    0.02 1.0
|128>     S 1
|129>      1    0.01 1.0
|130>   end
|131> end
|132>
|133> * xyz 0 4
|134> 51  0.0 0.0 0.0
|135> *
|136>
|137>
|138>                          ****END OF INPUT****

CARTESIAN COORDINATES (ANGSTROEM)
---------------------------------
  Sb     0.000000    0.000000    0.000000

 Total Charge           Charge          ....    0
 Multiplicity           Mult            ....    4
 Number of Electrons    NEL             ....   23
 Basis Dimension        Dim             ....   36

ORBITAL ENERGIES
----------------

  NO   OCC          E(Eh)            E(eV)
   0   2.0000      -6.518786      -177.3852
   1   2.0000      -4.585927      -124.7894
   2   2.0000      -4.585927      -124.7894
   3   2.0000      -4.585927      -124.7894
   4   2.0000      -1.613549       -43.9069
   5   2.0000      -1.613549       -43.9069
   6   2.0000      -1.613549       -43.9069
   7   2.0000      -1.613549       -43.9069
   8   2.0000      -1.613549       -43.9069
   9   2.0000      -0.619266       -16.8511
  10   1.0000      -0.333011        -9.0617
  11   1.0000      -0.333011        -9.0617
  12   1.0000      -0.333011        -9.0617
  13   0.0000       0.195262         5.3134
  14   0.0000       0.195262         5.3134
  15   0.0000       0.195262         5.3134
  16   0.0000       0.281192         7.6516
  17   0.0000       0.281192         7.6516

FINAL SINGLE POINT ENERGY      -239.275422555540

DIPOLE MOMENT
-------------
                                X             Y             Z
Electronic contribution:     -0.00000      -0.00000       0.00000
Nuclear contribution   :      0.00000       0.00000       0.00000
                        -----------------------------------------
Total Dipole Moment    :     -0.00000      -0.00000       0.00000
                        -----------------------------------------
Magnitude (a.u.)       :      0.00000
Magnitude (Debye)      :      0.00000

Rotational constants in cm-1:     0.000000     0.000000     0.000000
Rotational constants in MHz :     0.000000     0.000000     0.000000

                             ****ORCA TERMINATED NORMALLY****
TOTAL RUN TIME: 0 days 0 hours 0 minutes 2 seconds 522 msec
