                         Program Version 5.0.4 -  RELEASE  -
|  1> ! PBE def2-TZVP Opt
|  2>
|  3> * xyz 0 1
|  4> P  0.0000  0.0000  0.0000  # Phosphorus (P)
|  5> Cl  0.0000  2.0200  0.0000  # Equatorial Chlorine (Cl1)
|  6> Cl  1.7494 -1.0100  0.0000  # Equatorial Chlorine (Cl2)
|  7> Cl -1.7494 -1.0100  0.0000  # Equatorial Chlorine (Cl3)
|  8> Cl  0.0000  0.0000  2.1400  # Axial Chlorine (Cl4)
|  9> Cl  0.0000  0.0000 -2.1400  # Axial Chlorine (Cl5)
| 10> *
| 11>
| 12>                          ****END OF INPUT****
 Total Charge           Charge          ....    0
 Multiplicity           Mult            ....    1
 Number of Electrons    NEL             ....  100
FINAL SINGLE POINT ENERGY     -2641.421895336486
FINAL SINGLE POINT ENERGY     -2641.422490815311
FINAL SINGLE POINT ENERGY     -2641.422762275415
FINAL SINGLE POINT ENERGY     -2641.422776571861
FINAL SINGLE POINT ENERGY     -2641.422786725191
FINAL SINGLE POINT ENERGY     -2641.422787436951
                    ***********************HURRAY********************

CARTESIAN COORDINATES (ANGSTROEM)
---------------------------------
  P     -0.000000   -0.000011    0.000000
  Cl     0.000000    2.050098    0.000000
  Cl     1.775350   -1.025161    0.000000
  Cl    -1.775350   -1.025161   -0.000000
  Cl    -0.000000    0.000117    2.146692
  Cl    -0.000000    0.000117   -2.146692

 Multiplicity           Mult            ....    1
 Number of Electrons    NEL             ....  100
 Basis Dimension        Dim             ....  222

ORBITAL ENERGIES
----------------

  NO   OCC          E(Eh)            E(eV)
   0   2.0000    -100.703071     -2740.2699
   1   2.0000    -100.703070     -2740.2699
   2   2.0000    -100.703061     -2740.2696
   3   2.0000    -100.663883     -2739.2035
   4   2.0000    -100.663875     -2739.2033
   5   2.0000     -76.517805     -2082.1553
   6   2.0000      -9.217381      -250.8177
   7   2.0000      -9.217380      -250.8177
   8   2.0000      -9.217370      -250.8174
   9   2.0000      -9.178748      -249.7664
  10   2.0000      -9.178723      -249.7658
  11   2.0000      -7.040520      -191.5823
  12   2.0000      -7.040515      -191.5822
  13   2.0000      -7.040501      -191.5818
  14   2.0000      -7.031621      -191.3401
  15   2.0000      -7.031621      -191.3401
  16   2.0000      -7.031609      -191.3398
  17   2.0000      -7.029618      -191.2856
  18   2.0000      -7.029617      -191.2856
  19   2.0000      -7.029609      -191.2854
  20   2.0000      -7.001167      -190.5114
  21   2.0000      -7.001161      -190.5113
  22   2.0000      -6.992253      -190.2689
  23   2.0000      -6.992252      -190.2689
  24   2.0000      -6.992252      -190.2689
  25   2.0000      -6.992252      -190.2688
  26   2.0000      -6.496157      -176.7694
  27   2.0000      -4.713798      -128.2690
  28   2.0000      -4.713789      -128.2687
  29   2.0000      -4.712133      -128.2237
  30   2.0000      -0.868331       -23.6285
  31   2.0000      -0.796910       -21.6850
  32   2.0000      -0.796904       -21.6849
  33   2.0000      -0.763436       -20.7741
  34   2.0000      -0.739395       -20.1200
  35   2.0000      -0.585395       -15.9294
  36   2.0000      -0.456613       -12.4251
  37   2.0000      -0.456611       -12.4250
  38   2.0000      -0.442424       -12.0390
  39   2.0000      -0.360545        -9.8109
  40   2.0000      -0.360540        -9.8108
  41   2.0000      -0.346105        -9.4180
  42   2.0000      -0.346097        -9.4178
  43   2.0000      -0.328891        -8.9496
  44   2.0000      -0.317969        -8.6524
  45   2.0000      -0.299873        -8.1600
  46   2.0000      -0.287445        -7.8218
  47   2.0000      -0.287444        -7.8218
  48   2.0000      -0.266578        -7.2539
  49   2.0000      -0.266564        -7.2536
  50   0.0000      -0.163559        -4.4507
  51   0.0000      -0.079109        -2.1527
  52   0.0000      -0.079094        -2.1522
  53   0.0000      -0.036610        -0.9962
  54   0.0000       0.097433         2.6513

MULLIKEN ATOMIC CHARGES
-----------------------
   0 P :    0.492596
   1 Cl:   -0.047599
   2 Cl:   -0.047582
   3 Cl:   -0.047582
   4 Cl:   -0.174916
   5 Cl:   -0.174916
Sum of atomic charges:   -0.0000000

LOEWDIN ATOMIC CHARGES
----------------------
   0 P :   -0.626463
   1 Cl:    0.187216
   2 Cl:    0.187261
   3 Cl:    0.187261
   4 Cl:    0.032362
   5 Cl:    0.032362

  Mayer bond orders larger than 0.100000
B(  0-P ,  1-Cl) :   1.1723 B(  0-P ,  2-Cl) :   1.1723 B(  0-P ,  3-Cl) :   1.1723
B(  0-P ,  4-Cl) :   1.0153 B(  0-P ,  5-Cl) :   1.0153

FINAL SINGLE POINT ENERGY     -2641.422787484936

DIPOLE MOMENT
-------------
                                X             Y             Z
Electronic contribution:     -0.00000      -0.00018       0.00000
Nuclear contribution   :     -0.00000      -0.00000       0.00000
                        -----------------------------------------
Total Dipole Moment    :     -0.00000      -0.00018       0.00000
                        -----------------------------------------
Magnitude (a.u.)       :      0.00018
Magnitude (Debye)      :      0.00046

Rotational constants in cm-1:     0.037712     0.030637     0.030635
Rotational constants in MHz :  1130.574982   918.468181   918.404525

                             ****ORCA TERMINATED NORMALLY****
TOTAL RUN TIME: 0 days 0 hours 1 minutes 27 seconds 694 msec
