                         Program Version 5.0.4 -  RELEASE  -
|  1> ! PBE def2-TZVP
|  2>
|  3> * xyz 0 1
|  4>   As    -0.000000   -0.000390    0.000000
|  5>   Cl    -0.000000    2.177822   -0.000000
|  6>   Cl     1.887961   -1.087432   -0.000000
|  7>   Cl    -1.887961   -1.087432   -0.000000
|  8>   Cl    -0.000000   -0.001284    2.244990
|  9>   Cl    -0.000000   -0.001284   -2.244990
| 10> *
| 11>
| 12>                          ****END OF INPUT****

CARTESIAN COORDINATES (ANGSTROEM)
---------------------------------
  As    -0.000000   -0.000390    0.000000
  Cl    -0.000000    2.177822   -0.000000
  Cl     1.887961   -1.087432   -0.000000
  Cl    -1.887961   -1.087432   -0.000000
  Cl    -0.000000   -0.001284    2.244990
  Cl    -0.000000   -0.001284   -2.244990

 Total Charge           Charge          ....    0
 Multiplicity           Mult            ....    1
 Number of Electrons    NEL             ....  118
 Basis Dimension        Dim             ....  233

ORBITAL ENERGIES
----------------

  NO   OCC          E(Eh)            E(eV)
   0   2.0000    -424.301119    -11545.8204
   1   2.0000    -100.700869     -2740.2100
   2   2.0000    -100.700842     -2740.2092
   3   2.0000    -100.700839     -2740.2091
   4   2.0000    -100.670944     -2739.3957
   5   2.0000    -100.670938     -2739.3955
   6   2.0000     -53.367105     -1452.1927
   7   2.0000     -47.749391     -1299.3270
   8   2.0000     -47.749387     -1299.3269
   9   2.0000     -47.748918     -1299.3141
  10   2.0000      -9.214701      -250.7448
  11   2.0000      -9.214674      -250.7440
  12   2.0000      -9.214665      -250.7438
  13   2.0000      -9.185284      -249.9443
  14   2.0000      -9.185265      -249.9438
  15   2.0000      -7.038020      -191.5143
  16   2.0000      -7.037992      -191.5135
  17   2.0000      -7.037985      -191.5133
  18   2.0000      -7.028674      -191.2599
  19   2.0000      -7.028649      -191.2593
  20   2.0000      -7.028649      -191.2593
  21   2.0000      -7.027184      -191.2194
  22   2.0000      -7.027149      -191.2184
  23   2.0000      -7.027147      -191.2184
  24   2.0000      -7.008162      -190.7018
  25   2.0000      -7.008156      -190.7016
  26   2.0000      -6.998656      -190.4431
  27   2.0000      -6.998656      -190.4431
  28   2.0000      -6.998651      -190.4430
  29   2.0000      -6.998651      -190.4430
  30   2.0000      -6.899983      -187.7581
  31   2.0000      -5.002722      -136.1310
  32   2.0000      -5.002718      -136.1309
  33   2.0000      -5.000458      -136.0694
  34   2.0000      -1.674885       -45.5760
  35   2.0000      -1.674855       -45.5751
  36   2.0000      -1.672786       -45.5188
  37   2.0000      -1.672628       -45.5145
  38   2.0000      -1.672590       -45.5135
  39   2.0000      -0.847368       -23.0581
  40   2.0000      -0.786114       -21.3913
  41   2.0000      -0.786100       -21.3909
  42   2.0000      -0.762186       -20.7401
  43   2.0000      -0.743529       -20.2324
  44   2.0000      -0.594638       -16.1809
  45   2.0000      -0.441213       -12.0060
  46   2.0000      -0.441155       -12.0044
  47   2.0000      -0.432423       -11.7668
  48   2.0000      -0.348814        -9.4917
  49   2.0000      -0.348756        -9.4901
  50   2.0000      -0.336644        -9.1605
  51   2.0000      -0.336578        -9.1588
  52   2.0000      -0.327492        -8.9115
  53   2.0000      -0.318147        -8.6572
  54   2.0000      -0.305053        -8.3009
  55   2.0000      -0.293693        -7.9918
  56   2.0000      -0.293688        -7.9916
  57   2.0000      -0.276939        -7.5359
  58   2.0000      -0.276849        -7.5334
  59   0.0000      -0.199715        -5.4345
  60   0.0000      -0.089181        -2.4267
  61   0.0000      -0.088869        -2.4182
  62   0.0000      -0.047862        -1.3024
  63   0.0000       0.111223         3.0265

MULLIKEN ATOMIC CHARGES
-----------------------
   0 As:    0.785048
   1 Cl:   -0.130463
   2 Cl:   -0.130505
   3 Cl:   -0.130505
   4 Cl:   -0.196788
   5 Cl:   -0.196788
Sum of atomic charges:   -0.0000000

LOEWDIN ATOMIC CHARGES
----------------------
   0 As:   -0.372994
   1 Cl:    0.115591
   2 Cl:    0.115357
   3 Cl:    0.115357
   4 Cl:    0.013344
   5 Cl:    0.013344

  Mayer bond orders larger than 0.100000
B(  0-As,  1-Cl) :   1.0187 B(  0-As,  2-Cl) :   1.0184 B(  0-As,  3-Cl) :   1.0184
B(  0-As,  4-Cl) :   0.9362 B(  0-As,  5-Cl) :   0.9362

FINAL SINGLE POINT ENERGY     -4535.752259974210

DIPOLE MOMENT
-------------
                                X             Y             Z
Electronic contribution:      0.00000      -0.00144       0.00000
Nuclear contribution   :      0.00000       0.00182       0.00000
                        -----------------------------------------
Total Dipole Moment    :      0.00000       0.00038       0.00000
                        -----------------------------------------
Magnitude (a.u.)       :      0.00038
Magnitude (Debye)      :      0.00097

Rotational constants in cm-1:     0.033399     0.027664     0.027631
Rotational constants in MHz :  1001.277818   829.358058   828.352515

                             ****ORCA TERMINATED NORMALLY****
TOTAL RUN TIME: 0 days 0 hours 0 minutes 38 seconds 389 msec
