                         Program Version 5.0.4 -  RELEASE  -
|  1> ! PBE def2-TZVP
|  2>
|  3> * xyz 0 1
|  4>   P      0.000000   -0.043918   -0.000000
|  5>   F      0.000000    1.503458    0.000000
|  6>   F      1.554557   -0.383985    0.000000
|  7>   F     -1.554557   -0.383985    0.000000
|  8>   F     -0.000000   -0.383985    1.554557
|  9>   F     -0.000000   -0.383985   -1.554557
| 10> *
| 11>
| 12>                          ****END OF INPUT****

CARTESIAN COORDINATES (ANGSTROEM)
---------------------------------
  P      0.000000   -0.043918   -0.000000
  F      0.000000    1.503458    0.000000
  F      1.554557   -0.383985    0.000000
  F     -1.554557   -0.383985    0.000000
  F     -0.000000   -0.383985    1.554557
  F     -0.000000   -0.383985   -1.554557

 Total Charge           Charge          ....    0
 Multiplicity           Mult            ....    1
 Number of Electrons    NEL             ....   60
 Basis Dimension        Dim             ....  192

ORBITAL ENERGIES
----------------

  NO   OCC          E(Eh)            E(eV)
   0   2.0000     -76.558861     -2083.2725
   1   2.0000     -24.332611      -662.1240
   2   2.0000     -24.301357      -661.2735
   3   2.0000     -24.301357      -661.2735
   4   2.0000     -24.301351      -661.2734
   5   2.0000     -24.301339      -661.2731
   6   2.0000      -6.530167      -177.6949
   7   2.0000      -4.750224      -129.2602
   8   2.0000      -4.746699      -129.1643
   9   2.0000      -4.746699      -129.1643
  10   2.0000      -1.224695       -33.3257
  11   2.0000      -1.165380       -31.7116
  12   2.0000      -1.148772       -31.2597
  13   2.0000      -1.148772       -31.2597
  14   2.0000      -1.107847       -30.1461
  15   2.0000      -0.649329       -17.6692
  16   2.0000      -0.548008       -14.9121
  17   2.0000      -0.544345       -14.8124
  18   2.0000      -0.544345       -14.8124
  19   2.0000      -0.478246       -13.0137
  20   2.0000      -0.464122       -12.6294
  21   2.0000      -0.464122       -12.6294
  22   2.0000      -0.449951       -12.2438
  23   2.0000      -0.447260       -12.1706
  24   2.0000      -0.404649       -11.0111
  25   2.0000      -0.404649       -11.0111
  26   2.0000      -0.392373       -10.6770
  27   2.0000      -0.390717       -10.6320
  28   2.0000      -0.390717       -10.6320
  29   2.0000      -0.349351        -9.5063
  30   0.0000      -0.087797        -2.3891
  31   0.0000       0.022219         0.6046
  32   0.0000       0.105075         2.8592
  33   0.0000       0.105075         2.8592
  34   0.0000       0.155503         4.2315

MULLIKEN ATOMIC CHARGES
-----------------------
   0 P :    0.949274
   1 F :   -0.156218
   2 F :   -0.198264
   3 F :   -0.198264
   4 F :   -0.198264
   5 F :   -0.198264
Sum of atomic charges:   -0.0000000

LOEWDIN ATOMIC CHARGES
----------------------
   0 P :   -0.059806
   1 F :    0.063182
   2 F :   -0.000844
   3 F :   -0.000844
   4 F :   -0.000844
   5 F :   -0.000844

  Mayer bond orders larger than 0.100000
B(  0-P ,  1-F ) :   1.2333 B(  0-P ,  2-F ) :   1.1842 B(  0-P ,  3-F ) :   1.1842
B(  0-P ,  4-F ) :   1.1842 B(  0-P ,  5-F ) :   1.1842

FINAL SINGLE POINT ENERGY      -840.349227788742

DIPOLE MOMENT
-------------
                                X             Y             Z
Electronic contribution:      0.00000       0.02873      -0.00000
Nuclear contribution   :      0.00000      -0.01741       0.00000
                        -----------------------------------------
Total Dipole Moment    :      0.00000       0.01131      -0.00000
                        -----------------------------------------
Magnitude (a.u.)       :      0.01131
Magnitude (Debye)      :      0.02875

Rotational constants in cm-1:     0.115464     0.115464     0.091794
Rotational constants in MHz :  3461.525784  3461.525784  2751.923950

                             ****ORCA TERMINATED NORMALLY****
TOTAL RUN TIME: 0 days 0 hours 0 minutes 14 seconds 295 msec
