                         Program Version 5.0.4 -  RELEASE  -
|  1> ! PBE def2-TZVP
|  2>
|  3> * xyz 0 1
|  4>   P      0.000000   -0.043956    0.000000
|  5>   F     -0.000000    1.503423    0.000000
|  6>   F      1.554077   -0.385519   -0.000000
|  7>   F     -1.554077   -0.385519   -0.000000
|  8>   F     -0.000000   -0.382414    1.555033
|  9>   F     -0.000000   -0.382414   -1.555033
| 10> *
| 11>
| 12>                          ****END OF INPUT****

CARTESIAN COORDINATES (ANGSTROEM)
---------------------------------
  P      0.000000   -0.043956    0.000000
  F     -0.000000    1.503423    0.000000
  F      1.554077   -0.385519   -0.000000
  F     -1.554077   -0.385519   -0.000000
  F     -0.000000   -0.382414    1.555033
  F     -0.000000   -0.382414   -1.555033

 Total Charge           Charge          ....    0
 Multiplicity           Mult            ....    1
 Number of Electrons    NEL             ....   60
 Basis Dimension        Dim             ....  192

ORBITAL ENERGIES
----------------

  NO   OCC          E(Eh)            E(eV)
   0   2.0000     -76.558854     -2083.2723
   1   2.0000     -24.332551      -662.1224
   2   2.0000     -24.301440      -661.2758
   3   2.0000     -24.301428      -661.2755
   4   2.0000     -24.301259      -661.2709
   5   2.0000     -24.301247      -661.2705
   6   2.0000      -6.530159      -177.6947
   7   2.0000      -4.750217      -129.2600
   8   2.0000      -4.746698      -129.1642
   9   2.0000      -4.746685      -129.1639
  10   2.0000      -1.224688       -33.3254
  11   2.0000      -1.165359       -31.7110
  12   2.0000      -1.148881       -31.2626
  13   2.0000      -1.148664       -31.2567
  14   2.0000      -1.107847       -30.1461
  15   2.0000      -0.649321       -17.6689
  16   2.0000      -0.547992       -14.9116
  17   2.0000      -0.544386       -14.8135
  18   2.0000      -0.544298       -14.8111
  19   2.0000      -0.478247       -13.0138
  20   2.0000      -0.464113       -12.6292
  21   2.0000      -0.464103       -12.6289
  22   2.0000      -0.449951       -12.2438
  23   2.0000      -0.447251       -12.1703
  24   2.0000      -0.404701       -11.0125
  25   2.0000      -0.404575       -11.0090
  26   2.0000      -0.392373       -10.6770
  27   2.0000      -0.390750       -10.6328
  28   2.0000      -0.390678       -10.6309
  29   2.0000      -0.349350        -9.5063
  30   0.0000      -0.087804        -2.3893
  31   0.0000       0.022243         0.6053
  32   0.0000       0.104934         2.8554
  33   0.0000       0.105251         2.8640
  34   0.0000       0.155500         4.2314

MULLIKEN ATOMIC CHARGES
-----------------------
   0 P :    0.949279
   1 F :   -0.156240
   2 F :   -0.198020
   3 F :   -0.198020
   4 F :   -0.198500
   5 F :   -0.198500
Sum of atomic charges:   -0.0000000

LOEWDIN ATOMIC CHARGES
----------------------
   0 P :   -0.059834
   1 F :    0.063159
   2 F :   -0.000620
   3 F :   -0.000620
   4 F :   -0.001043
   5 F :   -0.001043

  Mayer bond orders larger than 0.100000
B(  0-P ,  1-F ) :   1.2333 B(  0-P ,  2-F ) :   1.1843 B(  0-P ,  3-F ) :   1.1843
B(  0-P ,  4-F ) :   1.1842 B(  0-P ,  5-F ) :   1.1842

FINAL SINGLE POINT ENERGY      -840.349227982580

DIPOLE MOMENT
-------------
                                X             Y             Z
Electronic contribution:      0.00000       0.02859      -0.00000
Nuclear contribution   :      0.00000      -0.01744       0.00000
                        -----------------------------------------
Total Dipole Moment    :      0.00000       0.01115      -0.00000
                        -----------------------------------------
Magnitude (a.u.)       :      0.01115
Magnitude (Debye)      :      0.02835

Rotational constants in cm-1:     0.115511     0.115422     0.091795
Rotational constants in MHz :  3462.937096  3460.259362  2751.930771

                             ****ORCA TERMINATED NORMALLY****
TOTAL RUN TIME: 0 days 0 hours 0 minutes 9 seconds 312 msec
