                         Program Version 5.0.4 -  RELEASE  -
|  1> ! PBE def2-TZVP Opt
|  2>
|  3> * xyz 0 1
|  4> As  0.0000  0.0000  0.0000  # Arsenic (P)
|  5> Cl  0.0000  2.1060  0.0000  # Equatorial Chlorine (Cl1)
|  6> Cl  1.8328 -1.0530  0.0000  # Equatorial Chlorine (Cl2)
|  7> Cl -1.8328 -1.0530  0.0000  # Equatorial Chlorine (Cl3)
|  8> Cl  0.0000  0.0000  2.2070  # Axial Chlorine (Cl4)
|  9> Cl  0.0000  0.0000 -2.2070  # Axial Chlorine (Cl5)
| 10> *
| 11>
| 12>                          ****END OF INPUT****
 Total Charge           Charge          ....    0
 Multiplicity           Mult            ....    1
 Number of Electrons    NEL             ....  118
FINAL SINGLE POINT ENERGY     -4535.747151360540
FINAL SINGLE POINT ENERGY     -4535.750521440725
FINAL SINGLE POINT ENERGY     -4535.752173259307
FINAL SINGLE POINT ENERGY     -4535.752234279086
FINAL SINGLE POINT ENERGY     -4535.752250672125
FINAL SINGLE POINT ENERGY     -4535.752258944310
FINAL SINGLE POINT ENERGY     -4535.752259879164
                    ***********************HURRAY********************

CARTESIAN COORDINATES (ANGSTROEM)
---------------------------------
  As    -0.000000   -0.000390    0.000000
  Cl    -0.000000    2.177822   -0.000000
  Cl     1.887961   -1.087432   -0.000000
  Cl    -1.887961   -1.087432   -0.000000
  Cl    -0.000000   -0.001284    2.244990
  Cl    -0.000000   -0.001284   -2.244990

 Multiplicity           Mult            ....    1
 Number of Electrons    NEL             ....  118
 Basis Dimension        Dim             ....  233

ORBITAL ENERGIES
----------------

  NO   OCC          E(Eh)            E(eV)
   0   2.0000    -424.301119    -11545.8204
   1   2.0000    -100.700849     -2740.2094
   2   2.0000    -100.700824     -2740.2087
   3   2.0000    -100.700821     -2740.2087
   4   2.0000    -100.670990     -2739.3969
   5   2.0000    -100.670984     -2739.3967
   6   2.0000     -53.367105     -1452.1928
   7   2.0000     -47.749391     -1299.3270
   8   2.0000     -47.749387     -1299.3269
   9   2.0000     -47.748918     -1299.3141
  10   2.0000      -9.214688      -250.7444
  11   2.0000      -9.214663      -250.7437
  12   2.0000      -9.214655      -250.7435
  13   2.0000      -9.185317      -249.9452
  14   2.0000      -9.185298      -249.9447
  15   2.0000      -7.038007      -191.5139
  16   2.0000      -7.037981      -191.5132
  17   2.0000      -7.037974      -191.5130
  18   2.0000      -7.028659      -191.2595
  19   2.0000      -7.028638      -191.2590
  20   2.0000      -7.028637      -191.2589
  21   2.0000      -7.027170      -191.2190
  22   2.0000      -7.027137      -191.2181
  23   2.0000      -7.027135      -191.2181
  24   2.0000      -7.008197      -190.7027
  25   2.0000      -7.008190      -190.7026
  26   2.0000      -6.998691      -190.4441
  27   2.0000      -6.998690      -190.4440
  28   2.0000      -6.998686      -190.4439
  29   2.0000      -6.998685      -190.4439
  30   2.0000      -6.899989      -187.7582
  31   2.0000      -5.002728      -136.1312
  32   2.0000      -5.002724      -136.1310
  33   2.0000      -5.000463      -136.0695
  34   2.0000      -1.674891       -45.5761
  35   2.0000      -1.674861       -45.5753
  36   2.0000      -1.672792       -45.5190
  37   2.0000      -1.672633       -45.5147
  38   2.0000      -1.672595       -45.5136
  39   2.0000      -0.847375       -23.0582
  40   2.0000      -0.786114       -21.3912
  41   2.0000      -0.786099       -21.3908
  42   2.0000      -0.762202       -20.7406
  43   2.0000      -0.743539       -20.2327
  44   2.0000      -0.594642       -16.1810
  45   2.0000      -0.441214       -12.0061
  46   2.0000      -0.441156       -12.0045
  47   2.0000      -0.432434       -11.7671
  48   2.0000      -0.348819        -9.4918
  49   2.0000      -0.348760        -9.4902
  50   2.0000      -0.336642        -9.1605
  51   2.0000      -0.336577        -9.1587
  52   2.0000      -0.327501        -8.9117
  53   2.0000      -0.318145        -8.6572
  54   2.0000      -0.305053        -8.3009
  55   2.0000      -0.293706        -7.9921
  56   2.0000      -0.293700        -7.9920
  57   2.0000      -0.276947        -7.5361
  58   2.0000      -0.276856        -7.5336
  59   0.0000      -0.199720        -5.4347
  60   0.0000      -0.089184        -2.4268
  61   0.0000      -0.088873        -2.4184
  62   0.0000      -0.047872        -1.3027
  63   0.0000       0.111216         3.0263

MULLIKEN ATOMIC CHARGES
-----------------------
   0 As:    0.785056
   1 Cl:   -0.130472
   2 Cl:   -0.130511
   3 Cl:   -0.130511
   4 Cl:   -0.196781
   5 Cl:   -0.196781
Sum of atomic charges:   -0.0000000

LOEWDIN ATOMIC CHARGES
----------------------
   0 As:   -0.372981
   1 Cl:    0.115579
   2 Cl:    0.115346
   3 Cl:    0.115346
   4 Cl:    0.013355
   5 Cl:    0.013355

  Mayer bond orders larger than 0.100000
B(  0-As,  1-Cl) :   1.0187 B(  0-As,  2-Cl) :   1.0183 B(  0-As,  3-Cl) :   1.0183
B(  0-As,  4-Cl) :   0.9362 B(  0-As,  5-Cl) :   0.9362

FINAL SINGLE POINT ENERGY     -4535.752259953202

DIPOLE MOMENT
-------------
                                X             Y             Z
Electronic contribution:     -0.00000      -0.00144       0.00000
Nuclear contribution   :      0.00000       0.00182      -0.00000
                        -----------------------------------------
Total Dipole Moment    :     -0.00000       0.00038      -0.00000
                        -----------------------------------------
Magnitude (a.u.)       :      0.00038
Magnitude (Debye)      :      0.00095

Rotational constants in cm-1:     0.033399     0.027664     0.027631
Rotational constants in MHz :  1001.277730   829.357929   828.352334

                             ****ORCA TERMINATED NORMALLY****
TOTAL RUN TIME: 0 days 0 hours 5 minutes 8 seconds 995 msec
