                         Program Version 5.0.4 -  RELEASE  -
|  1> ! PBE def2-TZVP Freq
|  2>
|  3> * xyz 0 1
|  4> As  0.0000  0.0000  0.0000  # Arsenic (As)
|  5> F  0.0000  1.7190  0.0000  # Equatorial Fluorine (F1)
|  6> F  1.6357 -0.4384  0.0000  # Equatorial Fluorine (F2)
|  7> F -1.6357 -0.4384  0.0000  # Equatorial Fluorine (F3)
|  8> F  0.0000  0.4384  1.6357  # Axial Fluorine (F4)
|  9> F  0.0000  0.4384 -1.6357  # Axial Fluorine (F5)
| 10> *
| 11>
| 12>                          ****END OF INPUT****

CARTESIAN COORDINATES (ANGSTROEM)
---------------------------------
  As     0.000000    0.000000    0.000000
  F      0.000000    1.719000    0.000000
  F      1.635700   -0.438400    0.000000
  F     -1.635700   -0.438400    0.000000
  F      0.000000    0.438400    1.635700
  F      0.000000    0.438400   -1.635700

 Total Charge           Charge          ....    0
 Multiplicity           Mult            ....    1
 Number of Electrons    NEL             ....   78
 Basis Dimension        Dim             ....  203

ORBITAL ENERGIES
----------------

  NO   OCC          E(Eh)            E(eV)
   0   2.0000    -424.324508    -11546.4569
   1   2.0000     -53.389383     -1452.7990
   2   2.0000     -47.771857     -1299.9383
   3   2.0000     -47.771188     -1299.9201
   4   2.0000     -47.770936     -1299.9133
   5   2.0000     -24.338093      -662.2732
   6   2.0000     -24.338092      -662.2732
   7   2.0000     -24.282926      -660.7720
   8   2.0000     -24.282923      -660.7719
   9   2.0000     -24.224809      -659.1906
  10   2.0000      -6.930293      -188.5829
  11   2.0000      -5.033952      -136.9808
  12   2.0000      -5.032512      -136.9416
  13   2.0000      -5.030899      -136.8977
  14   2.0000      -1.710642       -46.5489
  15   2.0000      -1.708230       -46.4833
  16   2.0000      -1.706135       -46.4263
  17   2.0000      -1.704816       -46.3904
  18   2.0000      -1.702610       -46.3304
  19   2.0000      -1.192509       -32.4498
  20   2.0000      -1.163128       -31.6503
  21   2.0000      -1.120933       -30.5021
  22   2.0000      -1.120039       -30.4778
  23   2.0000      -1.046670       -28.4813
  24   2.0000      -0.655449       -17.8357
  25   2.0000      -0.545005       -14.8304
  26   2.0000      -0.517803       -14.0901
  27   2.0000      -0.504058       -13.7161
  28   2.0000      -0.456310       -12.4168
  29   2.0000      -0.449726       -12.2377
  30   2.0000      -0.440490       -11.9863
  31   2.0000      -0.439663       -11.9638
  32   2.0000      -0.415709       -11.3120
  33   2.0000      -0.415016       -11.2932
  34   2.0000      -0.396108       -10.7787
  35   2.0000      -0.378699       -10.3049
  36   2.0000      -0.359503        -9.7826
  37   2.0000      -0.344771        -9.3817
  38   2.0000      -0.297086        -8.0841
  39   0.0000      -0.216232        -5.8840
  40   0.0000       0.009015         0.2453
  41   0.0000       0.027224         0.7408
  42   0.0000       0.068862         1.8738
  43   0.0000       0.157016         4.2726

MULLIKEN ATOMIC CHARGES
-----------------------
   0 As:    1.229869
   1 F :   -0.309761
   2 F :   -0.216594
   3 F :   -0.216594
   4 F :   -0.243461
   5 F :   -0.243461
Sum of atomic charges:    0.0000000

LOEWDIN ATOMIC CHARGES
----------------------
   0 As:    0.382002
   1 F :   -0.148596
   2 F :   -0.040649
   3 F :   -0.040649
   4 F :   -0.076055
   5 F :   -0.076055

  Mayer bond orders larger than 0.100000
B(  0-As,  1-F ) :   1.0157 B(  0-As,  2-F ) :   1.0822 B(  0-As,  3-F ) :   1.0822
B(  0-As,  4-F ) :   1.0738 B(  0-As,  5-F ) :   1.0738

FINAL SINGLE POINT ENERGY     -2734.525211785436

DIPOLE MOMENT
-------------
                                X             Y             Z
Electronic contribution:     -0.00000      -2.08393      -0.00000
Nuclear contribution   :      0.00000       0.90519       0.00000
                        -----------------------------------------
Total Dipole Moment    :     -0.00000      -1.17874      -0.00000
                        -----------------------------------------
Magnitude (a.u.)       :      1.17874
Magnitude (Debye)      :      2.99611

VIBRATIONAL FREQUENCIES
-----------------------

Scaling factor for frequencies =  1.000000000  (already applied!)

   0:         0.00 cm**-1
   1:         0.00 cm**-1
   2:         0.00 cm**-1
   3:         0.00 cm**-1
   4:         0.00 cm**-1
   5:         0.00 cm**-1
   6:      -142.65 cm**-1 ***imaginary mode***
   7:       127.49 cm**-1
   8:       315.14 cm**-1
   9:       319.86 cm**-1
  10:       331.80 cm**-1
  11:       375.63 cm**-1
  12:       570.34 cm**-1
  13:       623.02 cm**-1
  14:       702.59 cm**-1
  15:       801.98 cm**-1
  16:       806.57 cm**-1
  17:       825.13 cm**-1

IR SPECTRUM
-----------

 Mode   freq       eps      Int      T**2         TX        TY        TZ
       cm**-1   L/(mol*cm) km/mol    a.u.
----------------------------------------------------------------------------
  7:    127.49   0.000316    1.60  0.000774  (-0.000000  0.027819 -0.000000)
  8:    315.14   0.000000    0.00  0.000000  ( 0.000000  0.000000 -0.000000)
  9:    319.86   0.005545   28.02  0.005410  ( 0.000000  0.000000 -0.073552)
 10:    331.80   0.006725   33.98  0.006325  ( 0.079530 -0.000000  0.000000)
 11:    375.63   0.008384   42.37  0.006966  ( 0.000000  0.083460  0.000000)
 12:    570.34   0.008363   42.26  0.004576  ( 0.000000  0.000000  0.067646)
 13:    623.02   0.003368   17.02  0.001687  ( 0.000000 -0.041074  0.000000)
 14:    702.59   0.009907   50.06  0.004400  ( 0.000000 -0.066333  0.000000)
 15:    801.98   0.023215  117.32  0.009033  ( 0.095044 -0.000000 -0.000000)
 16:    806.57   0.007062   35.69  0.002732  ( 0.000000  0.052270  0.000000)
 17:    825.13   0.023855  120.55  0.009022  (-0.000000  0.000000 -0.094984)

--------------------------
THERMOCHEMISTRY AT 298.15K
--------------------------

Temperature         ... 298.15 K
Pressure            ... 1.00 atm
Total Mass          ... 169.91 AMU

Throughout the following assumptions are being made:
  (1) The electronic state is orbitally nondegenerate
  (2) There are no thermally accessible electronically excited states
  (3) Hindered rotations indicated by low frequency modes are not
      treated as such but are treated as vibrations and this may
      cause some error
  (4) All equations used are the standard statistical mechanics
      equations for an ideal gas
  (5) All vibrations are strictly harmonic

freq.     127.49  E(vib)   ...       0.43
freq.     315.14  E(vib)   ...       0.25
freq.     319.86  E(vib)   ...       0.25
freq.     331.80  E(vib)   ...       0.24
freq.     375.63  E(vib)   ...       0.21
freq.     570.34  E(vib)   ...       0.11
freq.     623.02  E(vib)   ...       0.09
freq.     702.59  E(vib)   ...       0.07
freq.     801.98  E(vib)   ...       0.05
freq.     806.57  E(vib)   ...       0.05
freq.     825.13  E(vib)   ...       0.04

------------
INNER ENERGY
------------

The inner energy is: U= E(el) + E(ZPE) + E(vib) + E(rot) + E(trans)
    E(el)   - is the total energy from the electronic structure calculation
              = E(kin-el) + E(nuc-el) + E(el-el) + E(nuc-nuc)
    E(ZPE)  - the the zero temperature vibrational energy from the frequency calculation
    E(vib)  - the the finite temperature correction to E(ZPE) due to population
              of excited vibrational states
    E(rot)  - is the rotational thermal energy
    E(trans)- is the translational thermal energy

Summary of contributions to the inner energy U:
Electronic energy                ...  -2734.52521179 Eh
Zero point energy                ...      0.01321233 Eh       8.29 kcal/mol
Thermal vibrational correction   ...      0.00285889 Eh       1.79 kcal/mol
Thermal rotational correction    ...      0.00141627 Eh       0.89 kcal/mol
Thermal translational correction ...      0.00141627 Eh       0.89 kcal/mol
-----------------------------------------------------------------------
Total thermal energy                  -2734.50630803 Eh

Summary of corrections to the electronic energy:
(perhaps to be used in another calculation)
Total thermal correction                  0.00569143 Eh       3.57 kcal/mol
Non-thermal (ZPE) correction              0.01321233 Eh       8.29 kcal/mol
-----------------------------------------------------------------------
Total correction                          0.01890376 Eh      11.86 kcal/mol

--------
ENTHALPY
--------

The enthalpy is H = U + kB*T
                kB is Boltzmann's constant
Total free energy                 ...  -2734.50630803 Eh
Thermal Enthalpy correction       ...      0.00094421 Eh       0.59 kcal/mol
-----------------------------------------------------------------------
Total Enthalpy                    ...  -2734.50536382 Eh

Note: Rotational entropy computed according to Herzberg
Infrared and Raman Spectra, Chapter V,1, Van Nostrand Reinhold, 1945
Point Group:  C2v, Symmetry Number:   2
Rotational constants in cm-1:     0.101475     0.101475     0.082913

Vibrational entropy computed according to the QRRHO of S. Grimme
Chem.Eur.J. 2012 18 9955

-------
ENTROPY
-------

The entropy contributions are T*S = T*(S(el)+S(vib)+S(rot)+S(trans))
     S(el)   - electronic entropy
     S(vib)  - vibrational entropy
     S(rot)  - rotational entropy
     S(trans)- translational entropy
The entropies will be listed as multiplied by the temperature to get
units of energy

Electronic entropy                ...      0.00000000 Eh      0.00 kcal/mol
Vibrational entropy               ...      0.00459225 Eh      2.88 kcal/mol
Rotational entropy                ...      0.01219207 Eh      7.65 kcal/mol
Translational entropy             ...      0.01962201 Eh     12.31 kcal/mol
-----------------------------------------------------------------------
Final entropy term                ...      0.03640632 Eh     22.85 kcal/mol

In case the symmetry of your molecule has not been determined correctly
or in case you have a reason to use a different symmetry number we print
out the resulting rotational entropy values for sn=1,12 :
 --------------------------------------------------------
|  sn= 1 | S(rot)=       0.01284653 Eh      8.06 kcal/mol|
|  sn= 2 | S(rot)=       0.01219207 Eh      7.65 kcal/mol|
|  sn= 3 | S(rot)=       0.01180924 Eh      7.41 kcal/mol|
|  sn= 4 | S(rot)=       0.01153762 Eh      7.24 kcal/mol|
|  sn= 5 | S(rot)=       0.01132693 Eh      7.11 kcal/mol|
|  sn= 6 | S(rot)=       0.01115478 Eh      7.00 kcal/mol|
|  sn= 7 | S(rot)=       0.01100924 Eh      6.91 kcal/mol|
|  sn= 8 | S(rot)=       0.01088316 Eh      6.83 kcal/mol|
|  sn= 9 | S(rot)=       0.01077195 Eh      6.76 kcal/mol|
|  sn=10 | S(rot)=       0.01067247 Eh      6.70 kcal/mol|
|  sn=11 | S(rot)=       0.01058248 Eh      6.64 kcal/mol|
|  sn=12 | S(rot)=       0.01050033 Eh      6.59 kcal/mol|
 --------------------------------------------------------

-------------------
GIBBS FREE ENERGY
-------------------

The Gibbs free energy is G = H - T*S

Total enthalpy                    ...  -2734.50536382 Eh
Total entropy correction          ...     -0.03640632 Eh    -22.85 kcal/mol
-----------------------------------------------------------------------
Final Gibbs free energy         ...  -2734.54177014 Eh

For completeness - the Gibbs free energy minus the electronic energy
G-E(el)                           ...     -0.01655835 Eh    -10.39 kcal/mol

                             ****ORCA TERMINATED NORMALLY****
TOTAL RUN TIME: 0 days 0 hours 1 minutes 56 seconds 943 msec
