                         Program Version 5.0.4 -  RELEASE  -
|  1> ! PBE def2-TZVP
|  2>
|  3> * xyz 0 1
|  4>   As    -0.000022    0.350931    0.000000
|  5>   Cl     0.000350    2.529298   -0.000000
|  6>   Cl     1.886319   -0.738231    0.000000
|  7>   Cl    -1.886241   -0.738571    0.000000
|  8>   Cl    -0.000203    0.351287    2.245129
|  9>   Cl    -0.000203    0.351286   -2.245130
| 10> *
| 11>
| 12>                          ****END OF INPUT****

CARTESIAN COORDINATES (ANGSTROEM)
---------------------------------
  As    -0.000022    0.350931    0.000000
  Cl     0.000350    2.529298   -0.000000
  Cl     1.886319   -0.738231    0.000000
  Cl    -1.886241   -0.738571    0.000000
  Cl    -0.000203    0.351287    2.245129
  Cl    -0.000203    0.351286   -2.245130

 Total Charge           Charge          ....    0
 Multiplicity           Mult            ....    1
 Number of Electrons    NEL             ....  118
 Basis Dimension        Dim             ....  233

ORBITAL ENERGIES
----------------

  NO   OCC          E(Eh)            E(eV)
   0   2.0000    -424.301116    -11545.8203
   1   2.0000    -100.700883     -2740.2103
   2   2.0000    -100.700870     -2740.2100
   3   2.0000    -100.700844     -2740.2093
   4   2.0000    -100.670917     -2739.3949
   5   2.0000    -100.670911     -2739.3948
   6   2.0000     -53.367102     -1452.1927
   7   2.0000     -47.749386     -1299.3269
   8   2.0000     -47.749386     -1299.3268
   9   2.0000     -47.748915     -1299.3140
  10   2.0000      -9.214716      -250.7452
  11   2.0000      -9.214702      -250.7448
  12   2.0000      -9.214674      -250.7440
  13   2.0000      -9.185257      -249.9435
  14   2.0000      -9.185238      -249.9430
  15   2.0000      -7.038035      -191.5147
  16   2.0000      -7.038022      -191.5143
  17   2.0000      -7.037993      -191.5135
  18   2.0000      -7.028692      -191.2604
  19   2.0000      -7.028680      -191.2601
  20   2.0000      -7.028650      -191.2593
  21   2.0000      -7.027194      -191.2197
  22   2.0000      -7.027181      -191.2193
  23   2.0000      -7.027156      -191.2186
  24   2.0000      -7.008135      -190.7010
  25   2.0000      -7.008128      -190.7009
  26   2.0000      -6.998627      -190.4423
  27   2.0000      -6.998626      -190.4423
  28   2.0000      -6.998626      -190.4423
  29   2.0000      -6.998626      -190.4423
  30   2.0000      -6.899982      -187.7581
  31   2.0000      -5.002724      -136.1310
  32   2.0000      -5.002714      -136.1308
  33   2.0000      -5.000457      -136.0694
  34   2.0000      -1.674883       -45.5759
  35   2.0000      -1.674857       -45.5752
  36   2.0000      -1.672785       -45.5188
  37   2.0000      -1.672622       -45.5144
  38   2.0000      -1.672593       -45.5136
  39   2.0000      -0.847389       -23.0586
  40   2.0000      -0.786147       -21.3921
  41   2.0000      -0.786124       -21.3915
  42   2.0000      -0.762151       -20.7392
  43   2.0000      -0.743511       -20.2320
  44   2.0000      -0.594638       -16.1809
  45   2.0000      -0.441211       -12.0060
  46   2.0000      -0.441200       -12.0057
  47   2.0000      -0.432410       -11.7665
  48   2.0000      -0.348793        -9.4911
  49   2.0000      -0.348784        -9.4909
  50   2.0000      -0.336643        -9.1605
  51   2.0000      -0.336621        -9.1599
  52   2.0000      -0.327480        -8.9112
  53   2.0000      -0.318163        -8.6577
  54   2.0000      -0.305055        -8.3010
  55   2.0000      -0.293673        -7.9912
  56   2.0000      -0.293672        -7.9912
  57   2.0000      -0.276899        -7.5348
  58   2.0000      -0.276867        -7.5339
  59   0.0000      -0.199696        -5.4340
  60   0.0000      -0.089013        -2.4222
  61   0.0000      -0.088973        -2.4211
  62   0.0000      -0.047898        -1.3034
  63   0.0000       0.111237         3.0269

MULLIKEN ATOMIC CHARGES
-----------------------
   0 As:    0.785029
   1 Cl:   -0.130460
   2 Cl:   -0.130393
   3 Cl:   -0.130410
   4 Cl:   -0.196883
   5 Cl:   -0.196883
Sum of atomic charges:    0.0000000

LOEWDIN ATOMIC CHARGES
----------------------
   0 As:   -0.373104
   1 Cl:    0.115474
   2 Cl:    0.115641
   3 Cl:    0.115585
   4 Cl:    0.013202
   5 Cl:    0.013201

  Mayer bond orders larger than 0.100000
B(  0-As,  1-Cl) :   1.0185 B(  0-As,  2-Cl) :   1.0187 B(  0-As,  3-Cl) :   1.0186
B(  0-As,  4-Cl) :   0.9361 B(  0-As,  5-Cl) :   0.9361

FINAL SINGLE POINT ENERGY     -4535.752260150213

DIPOLE MOMENT
-------------
                                X             Y             Z
Electronic contribution:      0.00004      -0.00083       0.00000
Nuclear contribution   :      0.00010       0.00032      -0.00000
                        -----------------------------------------
Total Dipole Moment    :      0.00014      -0.00050       0.00000
                        -----------------------------------------
Magnitude (a.u.)       :      0.00052
Magnitude (Debye)      :      0.00133

Rotational constants in cm-1:     0.033404     0.027650     0.027644
Rotational constants in MHz :  1001.421754   828.930941   828.756909

                             ****ORCA TERMINATED NORMALLY****
TOTAL RUN TIME: 0 days 0 hours 0 minutes 13 seconds 282 msec
