                         Program Version 5.0.4 -  RELEASE  -
|  1> ! PBE def2-TZVP
|  2>
|  3> * xyz 0 1
|  4>   P     -0.000000    0.022811   -0.000000
|  5>   Cl    -0.000000    2.046810   -0.000000
|  6>   Cl     2.065348   -0.415005    0.000000
|  7>   Cl    -2.065348   -0.415005    0.000000
|  8>   Cl     0.000000   -0.415005    2.065348
|  9>   Cl    -0.000000   -0.415005   -2.065348
| 10> *
| 11>
| 12>                          ****END OF INPUT****

CARTESIAN COORDINATES (ANGSTROEM)
---------------------------------
  P     -0.000000    0.022811   -0.000000
  Cl    -0.000000    2.046810   -0.000000
  Cl     2.065348   -0.415005    0.000000
  Cl    -2.065348   -0.415005    0.000000
  Cl     0.000000   -0.415005    2.065348
  Cl    -0.000000   -0.415005   -2.065348

 Total Charge           Charge          ....    0
 Multiplicity           Mult            ....    1
 Number of Electrons    NEL             ....  100
 Basis Dimension        Dim             ....  222

ORBITAL ENERGIES
----------------

  NO   OCC          E(Eh)            E(eV)
   0   2.0000    -100.707228     -2740.3830
   1   2.0000    -100.681927     -2739.6945
   2   2.0000    -100.681927     -2739.6945
   3   2.0000    -100.681921     -2739.6944
   4   2.0000    -100.681915     -2739.6942
   5   2.0000     -76.518190     -2082.1658
   6   2.0000      -9.221698      -250.9352
   7   2.0000      -9.196445      -250.2480
   8   2.0000      -9.196445      -250.2480
   9   2.0000      -9.196429      -250.2476
  10   2.0000      -9.196411      -250.2471
  11   2.0000      -7.044893      -191.7013
  12   2.0000      -7.034871      -191.4286
  13   2.0000      -7.034871      -191.4286
  14   2.0000      -7.019289      -191.0046
  15   2.0000      -7.019289      -191.0046
  16   2.0000      -7.019286      -191.0045
  17   2.0000      -7.019286      -191.0045
  18   2.0000      -7.010598      -190.7681
  19   2.0000      -7.010598      -190.7681
  20   2.0000      -7.010598      -190.7681
  21   2.0000      -7.010598      -190.7681
  22   2.0000      -7.008990      -190.7243
  23   2.0000      -7.008987      -190.7242
  24   2.0000      -7.008987      -190.7242
  25   2.0000      -7.008987      -190.7242
  26   2.0000      -6.496413      -176.7764
  27   2.0000      -4.715102      -128.3044
  28   2.0000      -4.712705      -128.2392
  29   2.0000      -4.712705      -128.2392
  30   2.0000      -0.866121       -23.5684
  31   2.0000      -0.790730       -21.5169
  32   2.0000      -0.779452       -21.2100
  33   2.0000      -0.779452       -21.2100
  34   2.0000      -0.743740       -20.2382
  35   2.0000      -0.584899       -15.9159
  36   2.0000      -0.449910       -12.2427
  37   2.0000      -0.449910       -12.2427
  38   2.0000      -0.449721       -12.2375
  39   2.0000      -0.365533        -9.9467
  40   2.0000      -0.350193        -9.5292
  41   2.0000      -0.350193        -9.5292
  42   2.0000      -0.334439        -9.1006
  43   2.0000      -0.330819        -9.0021
  44   2.0000      -0.301263        -8.1978
  45   2.0000      -0.301263        -8.1978
  46   2.0000      -0.292493        -7.9591
  47   2.0000      -0.291690        -7.9373
  48   2.0000      -0.291690        -7.9373
  49   2.0000      -0.255965        -6.9652
  50   0.0000      -0.176353        -4.7988
  51   0.0000      -0.099010        -2.6942
  52   0.0000      -0.043200        -1.1755
  53   0.0000      -0.043200        -1.1755
  54   0.0000       0.093876         2.5545

MULLIKEN ATOMIC CHARGES
-----------------------
   0 P :    0.494816
   1 Cl:   -0.044991
   2 Cl:   -0.112456
   3 Cl:   -0.112456
   4 Cl:   -0.112456
   5 Cl:   -0.112456
Sum of atomic charges:   -0.0000000

LOEWDIN ATOMIC CHARGES
----------------------
   0 P :   -0.610807
   1 Cl:    0.211169
   2 Cl:    0.099910
   3 Cl:    0.099910
   4 Cl:    0.099910
   5 Cl:    0.099910

  Mayer bond orders larger than 0.100000
B(  0-P ,  1-Cl) :   1.1998 B(  0-P ,  2-Cl) :   1.0756 B(  0-P ,  3-Cl) :   1.0756
B(  0-P ,  4-Cl) :   1.0756 B(  0-P ,  5-Cl) :   1.0756

FINAL SINGLE POINT ENERGY     -2641.417596303734

DIPOLE MOMENT
-------------
                                X             Y             Z
Electronic contribution:      0.00000       0.24005       0.00000
Nuclear contribution   :      0.00000      -0.01296       0.00000
                        -----------------------------------------
Total Dipole Moment    :      0.00000       0.22709       0.00000
                        -----------------------------------------
Magnitude (a.u.)       :      0.22709
Magnitude (Debye)      :      0.57722

Rotational constants in cm-1:     0.035532     0.035532     0.027867
Rotational constants in MHz :  1065.233352  1065.233352   835.445540

                             ****ORCA TERMINATED NORMALLY****
TOTAL RUN TIME: 0 days 0 hours 0 minutes 11 seconds 387 msec
