                         Program Version 5.0.4 -  RELEASE  -
|  1> ! PBE def2-TZVP OptTS
|  2>
|  3> # %geom
|  4> #   Calc_Hess true
|  5> # end
|  6>
|  7> %geom
|  8>   inhess read
|  9>   inhessname "SbCl5_ts_guess.hess"
| 10> end
| 11>
| 12> * xyz 0 1
| 13> Sb  0.0000  0.0000  0.0000  # Antimony (Sb)
| 14> Cl  0.0000  2.2770  0.0000  # Equatorial Chlorine (Cl1)
| 15> Cl  2.2289 -0.5972  0.0000  # Equatorial Chlorine (Cl2)
| 16> Cl -2.2289 -0.5972  0.0000  # Equatorial Chlorine (Cl3)
| 17> Cl  0.0000 -0.5972  2.2289  # Axial Chlorine (Cl4)
| 18> Cl  0.0000 -0.5972 -2.2289  # Axial Chlorine (Cl5)
| 19> **                         ****END OF INPUT****
 Total Charge           Charge          ....    0
 Multiplicity           Mult            ....    1
 Number of Electrons    NEL             ....  108
FINAL SINGLE POINT ENERGY     -2540.502075128474
FINAL SINGLE POINT ENERGY     -2540.507777750528
FINAL SINGLE POINT ENERGY     -2540.507924883539
FINAL SINGLE POINT ENERGY     -2540.507927210964
                    ***********************HURRAY********************

CARTESIAN COORDINATES (ANGSTROEM)
---------------------------------
  Sb     0.000000   -0.072745    0.000000
  Cl    -0.000000    2.239955   -0.000000
  Cl     2.311771   -0.569753    0.000000
  Cl    -2.311771   -0.569753    0.000000
  Cl     0.000000   -0.569753    2.311771
  Cl     0.000000   -0.569753   -2.311771

 Multiplicity           Mult            ....    1
 Number of Electrons    NEL             ....  108
 Basis Dimension        Dim             ....  235

ORBITAL ENERGIES
----------------

  NO   OCC          E(Eh)            E(eV)
   0   2.0000    -100.700131     -2740.1899
   1   2.0000    -100.683461     -2739.7363
   2   2.0000    -100.683461     -2739.7363
   3   2.0000    -100.683461     -2739.7363
   4   2.0000    -100.683460     -2739.7362
   5   2.0000      -9.214066      -250.7275
   6   2.0000      -9.197502      -250.2768
   7   2.0000      -9.197502      -250.2768
   8   2.0000      -9.197500      -250.2767
   9   2.0000      -9.197500      -250.2767
  10   2.0000      -7.036509      -191.4731
  11   2.0000      -7.027708      -191.2337
  12   2.0000      -7.027708      -191.2337
  13   2.0000      -7.019900      -191.0212
  14   2.0000      -7.019900      -191.0212
  15   2.0000      -7.019900      -191.0212
  16   2.0000      -7.019898      -191.0211
  17   2.0000      -7.011701      -190.7981
  18   2.0000      -7.011698      -190.7980
  19   2.0000      -7.011697      -190.7980
  20   2.0000      -7.011697      -190.7980
  21   2.0000      -7.010638      -190.7692
  22   2.0000      -7.010638      -190.7692
  23   2.0000      -7.010637      -190.7691
  24   2.0000      -7.010636      -190.7691
  25   2.0000      -5.636104      -153.3662
  26   2.0000      -3.905410      -106.2716
  27   2.0000      -3.902903      -106.2034
  28   2.0000      -3.902903      -106.2034
  29   2.0000      -1.345616       -36.6161
  30   2.0000      -1.343310       -36.5533
  31   2.0000      -1.342919       -36.5427
  32   2.0000      -1.342919       -36.5427
  33   2.0000      -1.340725       -36.4830
  34   2.0000      -0.815893       -22.2016
  35   2.0000      -0.774095       -21.0642
  36   2.0000      -0.767900       -20.8956
  37   2.0000      -0.767900       -20.8956
  38   2.0000      -0.747264       -20.3341
  39   2.0000      -0.566887       -15.4258
  40   2.0000      -0.417857       -11.3705
  41   2.0000      -0.417857       -11.3705
  42   2.0000      -0.413067       -11.2401
  43   2.0000      -0.342593        -9.3224
  44   2.0000      -0.334012        -9.0889
  45   2.0000      -0.334012        -9.0889
  46   2.0000      -0.330532        -8.9942
  47   2.0000      -0.324811        -8.8385
  48   2.0000      -0.309902        -8.4329
  49   2.0000      -0.309902        -8.4329
  50   2.0000      -0.303277        -8.2526
  51   2.0000      -0.301831        -8.2132
  52   2.0000      -0.301831        -8.2132
  53   2.0000      -0.278803        -7.5866
  54   0.0000      -0.207043        -5.6339
  55   0.0000      -0.107053        -2.9131
  56   0.0000      -0.050306        -1.3689
  57   0.0000      -0.050306        -1.3689
  58   0.0000       0.078917         2.1474

MULLIKEN ATOMIC CHARGES
-----------------------
   0 Sb:    0.995473
   1 Cl:   -0.190753
   2 Cl:   -0.201180
   3 Cl:   -0.201180
   4 Cl:   -0.201180
   5 Cl:   -0.201180
Sum of atomic charges:    0.0000000

LOEWDIN ATOMIC CHARGES
----------------------
   0 Sb:   -0.312569
   1 Cl:    0.104241
   2 Cl:    0.052082
   3 Cl:    0.052082
   4 Cl:    0.052082
   5 Cl:    0.052082

  Mayer bond orders larger than 0.100000
B(  0-Sb,  1-Cl) :   1.0380 B(  0-Sb,  2-Cl) :   0.9787 B(  0-Sb,  3-Cl) :   0.9787
B(  0-Sb,  4-Cl) :   0.9787 B(  0-Sb,  5-Cl) :   0.9787

FINAL SINGLE POINT ENERGY     -2540.507927232073

DIPOLE MOMENT
-------------
                                X             Y             Z
Electronic contribution:      0.00000      -2.50968       0.00000
Nuclear contribution   :     -0.00000       2.57371      -0.00000
                        -----------------------------------------
Total Dipole Moment    :     -0.00000       0.06403       0.00000
                        -----------------------------------------
Magnitude (a.u.)       :      0.06403
Magnitude (Debye)      :      0.16275

Rotational constants in cm-1:     0.027949     0.027949     0.022243
Rotational constants in MHz :   837.897368   837.897340   666.829761

                             ****ORCA TERMINATED NORMALLY****
TOTAL RUN TIME: 0 days 0 hours 1 minutes 25 seconds 274 msec
