                         Program Version 5.0.4 -  RELEASE  -
|  1> ! PBE def2-TZVP
|  2>
|  3> * xyz 0 1
|  4>   P     -0.000000    0.000246   -0.000000
|  5>   F      0.000000    1.566157    0.000000
|  6>   F      1.355301   -0.784033    0.000000
|  7>   F     -1.355301   -0.784033   -0.000000
|  8>   F     -0.000000    0.000831    1.601660
|  9>   F     -0.000000    0.000831   -1.601660
| 10> *
| 11>
| 12>                          ****END OF INPUT****

CARTESIAN COORDINATES (ANGSTROEM)
---------------------------------
  P     -0.000000    0.000246   -0.000000
  F      0.000000    1.566157    0.000000
  F      1.355301   -0.784033    0.000000
  F     -1.355301   -0.784033   -0.000000
  F     -0.000000    0.000831    1.601660
  F     -0.000000    0.000831   -1.601660

 Total Charge           Charge          ....    0
 Multiplicity           Mult            ....    1
 Number of Electrons    NEL             ....   60
 Basis Dimension        Dim             ....  192

ORBITAL ENERGIES
----------------

  NO   OCC          E(Eh)            E(eV)
   0   2.0000     -76.558294     -2083.2571
   1   2.0000     -24.324432      -661.9014
   2   2.0000     -24.324413      -661.9009
   3   2.0000     -24.324411      -661.9009
   4   2.0000     -24.284196      -660.8066
   5   2.0000     -24.284169      -660.8058
   6   2.0000      -6.529692      -177.6819
   7   2.0000      -4.748420      -129.2111
   8   2.0000      -4.748407      -129.2107
   9   2.0000      -4.745370      -129.1281
  10   2.0000      -1.225742       -33.3541
  11   2.0000      -1.168212       -31.7887
  12   2.0000      -1.168159       -31.7872
  13   2.0000      -1.133967       -30.8568
  14   2.0000      -1.105644       -30.0861
  15   2.0000      -0.650010       -17.6877
  16   2.0000      -0.551802       -15.0153
  17   2.0000      -0.551758       -15.0141
  18   2.0000      -0.537588       -14.6285
  19   2.0000      -0.473777       -12.8921
  20   2.0000      -0.473673       -12.8893
  21   2.0000      -0.460803       -12.5391
  22   2.0000      -0.460757       -12.5378
  23   2.0000      -0.446490       -12.1496
  24   2.0000      -0.422716       -11.5027
  25   2.0000      -0.403422       -10.9777
  26   2.0000      -0.387810       -10.5528
  27   2.0000      -0.387802       -10.5526
  28   2.0000      -0.363711        -9.8971
  29   2.0000      -0.363596        -9.8940
  30   0.0000      -0.044651        -1.2150
  31   0.0000       0.029670         0.8074
  32   0.0000       0.030240         0.8229
  33   0.0000       0.122015         3.3202
  34   0.0000       0.165934         4.5153

MULLIKEN ATOMIC CHARGES
-----------------------
   0 P :    0.951040
   1 F :   -0.159911
   2 F :   -0.159914
   3 F :   -0.159914
   4 F :   -0.235651
   5 F :   -0.235651
Sum of atomic charges:    0.0000000

LOEWDIN ATOMIC CHARGES
----------------------
   0 P :   -0.066396
   1 F :    0.039871
   2 F :    0.039930
   3 F :    0.039930
   4 F :   -0.026668
   5 F :   -0.026668

  Mayer bond orders larger than 0.100000
B(  0-P ,  1-F ) :   1.2091 B(  0-P ,  2-F ) :   1.2092 B(  0-P ,  3-F ) :   1.2092
B(  0-P ,  4-F ) :   1.1848 B(  0-P ,  5-F ) :   1.1848

FINAL SINGLE POINT ENERGY      -840.354684668211

DIPOLE MOMENT
-------------
                                X             Y             Z
Electronic contribution:     -0.00000       0.00043      -0.00000
Nuclear contribution   :      0.00000       0.00014       0.00000
                        -----------------------------------------
Total Dipole Moment    :     -0.00000       0.00056      -0.00000
                        -----------------------------------------
Magnitude (a.u.)       :      0.00056
Magnitude (Debye)      :      0.00143

Rotational constants in cm-1:     0.120629     0.100784     0.100686
Rotational constants in MHz :  3616.355941  3021.442544  3018.499880

                             ****ORCA TERMINATED NORMALLY****
TOTAL RUN TIME: 0 days 0 hours 0 minutes 9 seconds 18 msec
