                         Program Version 5.0.4 -  RELEASE  -
|  1> ! PBE def2-TZVP
|  2>
|  3> * xyz 0 1
|  4>   P     -0.000000   -0.000011    0.000000
|  5>   Cl     0.000000    2.050098    0.000000
|  6>   Cl     1.775350   -1.025161    0.000000
|  7>   Cl    -1.775350   -1.025161   -0.000000
|  8>   Cl    -0.000000    0.000117    2.146692
|  9>   Cl    -0.000000    0.000117   -2.146692
| 10> *
| 11>
| 12>                          ****END OF INPUT****

CARTESIAN COORDINATES (ANGSTROEM)
---------------------------------
  P     -0.000000   -0.000011    0.000000
  Cl     0.000000    2.050098    0.000000
  Cl     1.775350   -1.025161    0.000000
  Cl    -1.775350   -1.025161   -0.000000
  Cl    -0.000000    0.000117    2.146692
  Cl    -0.000000    0.000117   -2.146692

 Total Charge           Charge          ....    0
 Multiplicity           Mult            ....    1
 Number of Electrons    NEL             ....  100
 Basis Dimension        Dim             ....  222

ORBITAL ENERGIES
----------------

  NO   OCC          E(Eh)            E(eV)
   0   2.0000    -100.703087     -2740.2703
   1   2.0000    -100.703086     -2740.2703
   2   2.0000    -100.703077     -2740.2700
   3   2.0000    -100.663883     -2739.2035
   4   2.0000    -100.663875     -2739.2033
   5   2.0000     -76.517798     -2082.1551
   6   2.0000      -9.217387      -250.8179
   7   2.0000      -9.217387      -250.8178
   8   2.0000      -9.217377      -250.8176
   9   2.0000      -9.178757      -249.7667
  10   2.0000      -9.178732      -249.7660
  11   2.0000      -7.040527      -191.5825
  12   2.0000      -7.040522      -191.5823
  13   2.0000      -7.040508      -191.5820
  14   2.0000      -7.031629      -191.3404
  15   2.0000      -7.031629      -191.3403
  16   2.0000      -7.031618      -191.3400
  17   2.0000      -7.029626      -191.2859
  18   2.0000      -7.029625      -191.2858
  19   2.0000      -7.029617      -191.2856
  20   2.0000      -7.001175      -190.5117
  21   2.0000      -7.001170      -190.5115
  22   2.0000      -6.992260      -190.2691
  23   2.0000      -6.992260      -190.2691
  24   2.0000      -6.992260      -190.2691
  25   2.0000      -6.992259      -190.2691
  26   2.0000      -6.496157      -176.7694
  27   2.0000      -4.713797      -128.2689
  28   2.0000      -4.713788      -128.2687
  29   2.0000      -4.712132      -128.2236
  30   2.0000      -0.868337       -23.6286
  31   2.0000      -0.796912       -21.6851
  32   2.0000      -0.796906       -21.6849
  33   2.0000      -0.763446       -20.7744
  34   2.0000      -0.739403       -20.1202
  35   2.0000      -0.585398       -15.9295
  36   2.0000      -0.456613       -12.4251
  37   2.0000      -0.456611       -12.4250
  38   2.0000      -0.442433       -12.0392
  39   2.0000      -0.360550        -9.8111
  40   2.0000      -0.360545        -9.8109
  41   2.0000      -0.346106        -9.4180
  42   2.0000      -0.346098        -9.4178
  43   2.0000      -0.328899        -8.9498
  44   2.0000      -0.317969        -8.6524
  45   2.0000      -0.299875        -8.1600
  46   2.0000      -0.287454        -7.8220
  47   2.0000      -0.287453        -7.8220
  48   2.0000      -0.266584        -7.2541
  49   2.0000      -0.266570        -7.2537
  50   0.0000      -0.163562        -4.4507
  51   0.0000      -0.079111        -2.1527
  52   0.0000      -0.079095        -2.1523
  53   0.0000      -0.036617        -0.9964
  54   0.0000       0.097428         2.6512

MULLIKEN ATOMIC CHARGES
-----------------------
   0 P :    0.492585
   1 Cl:   -0.047623
   2 Cl:   -0.047607
   3 Cl:   -0.047606
   4 Cl:   -0.174875
   5 Cl:   -0.174875
Sum of atomic charges:   -0.0000000

LOEWDIN ATOMIC CHARGES
----------------------
   0 P :   -0.626472
   1 Cl:    0.187197
   2 Cl:    0.187242
   3 Cl:    0.187242
   4 Cl:    0.032395
   5 Cl:    0.032395

  Mayer bond orders larger than 0.100000
B(  0-P ,  1-Cl) :   1.1723 B(  0-P ,  2-Cl) :   1.1723 B(  0-P ,  3-Cl) :   1.1723
B(  0-P ,  4-Cl) :   1.0153 B(  0-P ,  5-Cl) :   1.0153

FINAL SINGLE POINT ENERGY     -2641.422787461331

DIPOLE MOMENT
-------------
                                X             Y             Z
Electronic contribution:      0.00000      -0.00018       0.00000
Nuclear contribution   :      0.00000      -0.00000       0.00000
                        -----------------------------------------
Total Dipole Moment    :      0.00000      -0.00018       0.00000
                        -----------------------------------------
Magnitude (a.u.)       :      0.00018
Magnitude (Debye)      :      0.00046

Rotational constants in cm-1:     0.037712     0.030637     0.030635
Rotational constants in MHz :  1130.575483   918.468505   918.404789

                             ****ORCA TERMINATED NORMALLY****
TOTAL RUN TIME: 0 days 0 hours 0 minutes 11 seconds 479 msec
