                         Program Version 5.0.4 -  RELEASE  -
|  1> ! PBE def2-TZVP Freq
|  2>
|  3> * xyz 0 1
|  4> P  0.0000  0.0000  0.0000  # Phosphorus (P)
|  5> F  0.0000  1.5340  0.0000  # Equatorial Fluorine (F1)
|  6> F  1.4817 -0.4026  0.0000  # Equatorial Fluorine (F2)
|  7> F -1.4817 -0.4026  0.0000  # Equatorial Fluorine (F3)
|  8> F  0.0000 -0.4026  1.4817  # Axial Fluorine (F4)
|  9> F  0.0000 -0.4026 -1.4817  # Axial Fluorine (F5)
| 10> *
| 11>
| 12>                          ****END OF INPUT****

CARTESIAN COORDINATES (ANGSTROEM)
---------------------------------
  P      0.000000    0.000000    0.000000
  F      0.000000    1.534000    0.000000
  F      1.481700   -0.402600    0.000000
  F     -1.481700   -0.402600    0.000000
  F      0.000000   -0.402600    1.481700
  F      0.000000   -0.402600   -1.481700

 Total Charge           Charge          ....    0
 Multiplicity           Mult            ....    1
 Number of Electrons    NEL             ....   60
 Basis Dimension        Dim             ....  192

ORBITAL ENERGIES
----------------

  NO   OCC          E(Eh)            E(eV)
   0   2.0000     -76.537188     -2082.6828
   1   2.0000     -24.336518      -662.2303
   2   2.0000     -24.293486      -661.0594
   3   2.0000     -24.293485      -661.0593
   4   2.0000     -24.293485      -661.0593
   5   2.0000     -24.293471      -661.0590
   6   2.0000      -6.512762      -177.2213
   7   2.0000      -4.732200      -128.7697
   8   2.0000      -4.729181      -128.6876
   9   2.0000      -4.729181      -128.6876
  10   2.0000      -1.243937       -33.8492
  11   2.0000      -1.177524       -32.0420
  12   2.0000      -1.159936       -31.5635
  13   2.0000      -1.159936       -31.5635
  14   2.0000      -1.106973       -30.1223
  15   2.0000      -0.645102       -17.5541
  16   2.0000      -0.556531       -15.1440
  17   2.0000      -0.547384       -14.8951
  18   2.0000      -0.547384       -14.8951
  19   2.0000      -0.493662       -13.4332
  20   2.0000      -0.470917       -12.8143
  21   2.0000      -0.470917       -12.8143
  22   2.0000      -0.458844       -12.4858
  23   2.0000      -0.449912       -12.2427
  24   2.0000      -0.410083       -11.1589
  25   2.0000      -0.410083       -11.1589
  26   2.0000      -0.387338       -10.5400
  27   2.0000      -0.387338       -10.5400
  28   2.0000      -0.387184       -10.5358
  29   2.0000      -0.337847        -9.1933
  30   0.0000      -0.019574        -0.5326
  31   0.0000       0.036140         0.9834
  32   0.0000       0.111649         3.0381
  33   0.0000       0.111649         3.0381
  34   0.0000       0.161340         4.3903

MULLIKEN ATOMIC CHARGES
-----------------------
   0 P :    0.899552
   1 F :   -0.154733
   2 F :   -0.186205
   3 F :   -0.186205
   4 F :   -0.186205
   5 F :   -0.186205
Sum of atomic charges:    0.0000000

LOEWDIN ATOMIC CHARGES
----------------------
   0 P :   -0.248112
   1 F :    0.079312
   2 F :    0.042200
   3 F :    0.042200
   4 F :    0.042200
   5 F :    0.042200

  Mayer bond orders larger than 0.100000
B(  0-P ,  1-F ) :   1.2415 B(  0-P ,  2-F ) :   1.2251 B(  0-P ,  3-F ) :   1.2251
B(  0-P ,  4-F ) :   1.2251 B(  0-P ,  5-F ) :   1.2251

FINAL SINGLE POINT ENERGY      -840.334612365129

DIPOLE MOMENT
-------------
                                X             Y             Z
Electronic contribution:      0.00000       0.12600       0.00000
Nuclear contribution   :      0.00000       0.00711       0.00000
                        -----------------------------------------
Total Dipole Moment    :      0.00000       0.13311       0.00000
                        -----------------------------------------
Magnitude (a.u.)       :      0.13311
Magnitude (Debye)      :      0.33834

VIBRATIONAL FREQUENCIES
-----------------------

Scaling factor for frequencies =  1.000000000  (already applied!)

   0:         0.00 cm**-1
   1:         0.00 cm**-1
   2:         0.00 cm**-1
   3:         0.00 cm**-1
   4:         0.00 cm**-1
   5:         0.00 cm**-1
   6:      -231.35 cm**-1 ***imaginary mode***
   7:       331.00 cm**-1
   8:       331.00 cm**-1
   9:       477.49 cm**-1
  10:       571.59 cm**-1
  11:       571.59 cm**-1
  12:       610.05 cm**-1
  13:       717.97 cm**-1
  14:       874.58 cm**-1
  15:      1021.89 cm**-1
  16:      1098.69 cm**-1
  17:      1098.69 cm**-1

IR SPECTRUM
-----------

 Mode   freq       eps      Int      T**2         TX        TY        TZ
       cm**-1   L/(mol*cm) km/mol    a.u.
----------------------------------------------------------------------------
  7:    331.00   0.000353    1.78  0.000332  (-0.018229  0.000000 -0.000372)
  8:    331.00   0.000353    1.78  0.000332  (-0.000372 -0.000000  0.018229)
  9:    477.49   0.007579   38.30  0.004953  ( 0.000000 -0.070380  0.000000)
 10:    571.59   0.010776   54.46  0.005883  (-0.055048 -0.000000 -0.053412)
 11:    571.59   0.010776   54.46  0.005883  ( 0.053412 -0.000000 -0.055048)
 12:    610.05   0.000000    0.00  0.000000  (-0.000000  0.000000  0.000000)
 13:    717.97   0.000000    0.00  0.000000  (-0.000000  0.000000 -0.000000)
 14:    874.58   0.001217    6.15  0.000434  ( 0.000000 -0.020839 -0.000000)
 15:   1021.89   0.041943  211.96  0.012809  ( 0.000000  0.113175 -0.000000)
 16:   1098.69   0.066268  334.89  0.018822  ( 0.017646  0.000000  0.136055)
 17:   1098.69   0.066268  334.89  0.018822  ( 0.136055 -0.000000 -0.017646)

--------------------------
THERMOCHEMISTRY AT 298.15K
--------------------------

Temperature         ... 298.15 K
Pressure            ... 1.00 atm
Total Mass          ... 125.96 AMU

Throughout the following assumptions are being made:
  (1) The electronic state is orbitally nondegenerate
  (2) There are no thermally accessible electronically excited states
  (3) Hindered rotations indicated by low frequency modes are not
      treated as such but are treated as vibrations and this may
      cause some error
  (4) All equations used are the standard statistical mechanics
      equations for an ideal gas
  (5) All vibrations are strictly harmonic

freq.     331.00  E(vib)   ...       0.24
freq.     331.00  E(vib)   ...       0.24
freq.     477.49  E(vib)   ...       0.15
freq.     571.59  E(vib)   ...       0.11
freq.     571.59  E(vib)   ...       0.11
freq.     610.05  E(vib)   ...       0.10
freq.     717.97  E(vib)   ...       0.07
freq.     874.58  E(vib)   ...       0.04
freq.    1021.89  E(vib)   ...       0.02
freq.    1098.69  E(vib)   ...       0.02
freq.    1098.69  E(vib)   ...       0.02

------------
INNER ENERGY
------------

The inner energy is: U= E(el) + E(ZPE) + E(vib) + E(rot) + E(trans)
    E(el)   - is the total energy from the electronic structure calculation
              = E(kin-el) + E(nuc-el) + E(el-el) + E(nuc-nuc)
    E(ZPE)  - the the zero temperature vibrational energy from the frequency calculation
    E(vib)  - the the finite temperature correction to E(ZPE) due to population
              of excited vibrational states
    E(rot)  - is the rotational thermal energy
    E(trans)- is the translational thermal energy

Summary of contributions to the inner energy U:
Electronic energy                ...   -840.33461237 Eh
Zero point energy                ...      0.01755227 Eh      11.01 kcal/mol
Thermal vibrational correction   ...      0.00176315 Eh       1.11 kcal/mol
Thermal rotational correction    ...      0.00141627 Eh       0.89 kcal/mol
Thermal translational correction ...      0.00141627 Eh       0.89 kcal/mol
-----------------------------------------------------------------------
Total thermal energy                   -840.31246440 Eh

Summary of corrections to the electronic energy:
(perhaps to be used in another calculation)
Total thermal correction                  0.00459569 Eh       2.88 kcal/mol
Non-thermal (ZPE) correction              0.01755227 Eh      11.01 kcal/mol
-----------------------------------------------------------------------
Total correction                          0.02214796 Eh      13.90 kcal/mol

--------
ENTHALPY
--------

The enthalpy is H = U + kB*T
                kB is Boltzmann's constant
Total free energy                 ...   -840.31246440 Eh
Thermal Enthalpy correction       ...      0.00094421 Eh       0.59 kcal/mol
-----------------------------------------------------------------------
Total Enthalpy                    ...   -840.31152019 Eh

Note: Rotational entropy computed according to Herzberg
Infrared and Raman Spectra, Chapter V,1, Van Nostrand Reinhold, 1945
Point Group:  C4v, Symmetry Number:   4
Rotational constants in cm-1:     0.120049     0.120049     0.101044

Vibrational entropy computed according to the QRRHO of S. Grimme
Chem.Eur.J. 2012 18 9955

-------
ENTROPY
-------

The entropy contributions are T*S = T*(S(el)+S(vib)+S(rot)+S(trans))
     S(el)   - electronic entropy
     S(vib)  - vibrational entropy
     S(rot)  - rotational entropy
     S(trans)- translational entropy
The entropies will be listed as multiplied by the temperature to get
units of energy

Electronic entropy                ...      0.00000000 Eh      0.00 kcal/mol
Vibrational entropy               ...      0.00252933 Eh      1.59 kcal/mol
Rotational entropy                ...      0.01128556 Eh      7.08 kcal/mol
Translational entropy             ...      0.01919815 Eh     12.05 kcal/mol
-----------------------------------------------------------------------
Final entropy term                ...      0.03301304 Eh     20.72 kcal/mol

In case the symmetry of your molecule has not been determined correctly
or in case you have a reason to use a different symmetry number we print
out the resulting rotational entropy values for sn=1,12 :
 --------------------------------------------------------
|  sn= 1 | S(rot)=       0.01259447 Eh      7.90 kcal/mol|
|  sn= 2 | S(rot)=       0.01194001 Eh      7.49 kcal/mol|
|  sn= 3 | S(rot)=       0.01155718 Eh      7.25 kcal/mol|
|  sn= 4 | S(rot)=       0.01128556 Eh      7.08 kcal/mol|
|  sn= 5 | S(rot)=       0.01107487 Eh      6.95 kcal/mol|
|  sn= 6 | S(rot)=       0.01090272 Eh      6.84 kcal/mol|
|  sn= 7 | S(rot)=       0.01075718 Eh      6.75 kcal/mol|
|  sn= 8 | S(rot)=       0.01063110 Eh      6.67 kcal/mol|
|  sn= 9 | S(rot)=       0.01051989 Eh      6.60 kcal/mol|
|  sn=10 | S(rot)=       0.01042041 Eh      6.54 kcal/mol|
|  sn=11 | S(rot)=       0.01033042 Eh      6.48 kcal/mol|
|  sn=12 | S(rot)=       0.01024827 Eh      6.43 kcal/mol|
 --------------------------------------------------------

-------------------
GIBBS FREE ENERGY
-------------------

The Gibbs free energy is G = H - T*S

Total enthalpy                    ...   -840.31152019 Eh
Total entropy correction          ...     -0.03301304 Eh    -20.72 kcal/mol
-----------------------------------------------------------------------
Final Gibbs free energy         ...   -840.34453323 Eh

For completeness - the Gibbs free energy minus the electronic energy
G-E(el)                           ...     -0.00992087 Eh     -6.23 kcal/mol

                             ****ORCA TERMINATED NORMALLY****
TOTAL RUN TIME: 0 days 0 hours 2 minutes 59 seconds 309 msec
