                         Program Version 5.0.4 -  RELEASE  -
|  1> ! PBE def2-TZVP Freq
|  2>
|  3> * xyz 0 1
|  4> P  0.0000  0.0000  0.0000  # Phosphorus (P)
|  5> F  0.0000  1.5340  0.0000  # Equatorial Fluorine (F1)
|  6> F  1.4817 -0.4026  0.0000  # Equatorial Fluorine (F2)
|  7> F -1.4817 -0.4026  0.0000  # Equatorial Fluorine (F3)
|  8> F  0.0000 -0.4026  1.5232  # Axial Fluorine (F4)
|  9> F  0.0000 -0.4026 -1.5232  # Axial Fluorine (F5)
| 10> *
| 11>
| 12>                          ****END OF INPUT****

CARTESIAN COORDINATES (ANGSTROEM)
---------------------------------
  P      0.000000    0.000000    0.000000
  F      0.000000    1.534000    0.000000
  F      1.481700   -0.402600    0.000000
  F     -1.481700   -0.402600    0.000000
  F      0.000000   -0.402600    1.523200
  F      0.000000   -0.402600   -1.523200

 Total Charge           Charge          ....    0
 Multiplicity           Mult            ....    1
 Number of Electrons    NEL             ....   60
 Basis Dimension        Dim             ....  192

ORBITAL ENERGIES
----------------

  NO   OCC          E(Eh)            E(eV)
   0   2.0000     -76.544959     -2082.8942
   1   2.0000     -24.340259      -662.3321
   2   2.0000     -24.301228      -661.2700
   3   2.0000     -24.301222      -661.2699
   4   2.0000     -24.288892      -660.9343
   5   2.0000     -24.288885      -660.9342
   6   2.0000      -6.519013      -177.3914
   7   2.0000      -4.738629      -128.9447
   8   2.0000      -4.735634      -128.8632
   9   2.0000      -4.735353      -128.8555
  10   2.0000      -1.238517       -33.7018
  11   2.0000      -1.178098       -32.0577
  12   2.0000      -1.165055       -31.7028
  13   2.0000      -1.144630       -31.1470
  14   2.0000      -1.104627       -30.0584
  15   2.0000      -0.647204       -17.6113
  16   2.0000      -0.555960       -15.1284
  17   2.0000      -0.549298       -14.9472
  18   2.0000      -0.543370       -14.7858
  19   2.0000      -0.487870       -13.2756
  20   2.0000      -0.473901       -12.8955
  21   2.0000      -0.467815       -12.7299
  22   2.0000      -0.458043       -12.4640
  23   2.0000      -0.446846       -12.1593
  24   2.0000      -0.413367       -11.2483
  25   2.0000      -0.406199       -11.0532
  26   2.0000      -0.388225       -10.5641
  27   2.0000      -0.386541       -10.5183
  28   2.0000      -0.384747       -10.4695
  29   2.0000      -0.339959        -9.2507
  30   0.0000      -0.035128        -0.9559
  31   0.0000       0.028199         0.7673
  32   0.0000       0.104455         2.8424
  33   0.0000       0.108382         2.9492
  34   0.0000       0.161406         4.3921

MULLIKEN ATOMIC CHARGES
-----------------------
   0 P :    0.917411
   1 F :   -0.149983
   2 F :   -0.175455
   3 F :   -0.175456
   4 F :   -0.208259
   5 F :   -0.208259
Sum of atomic charges:   -0.0000000

LOEWDIN ATOMIC CHARGES
----------------------
   0 P :   -0.181022
   1 F :    0.081096
   2 F :    0.048241
   3 F :    0.048241
   4 F :    0.001722
   5 F :    0.001722

  Mayer bond orders larger than 0.100000
B(  0-P ,  1-F ) :   1.2452 B(  0-P ,  2-F ) :   1.2319 B(  0-P ,  3-F ) :   1.2319
B(  0-P ,  4-F ) :   1.1874 B(  0-P ,  5-F ) :   1.1874

FINAL SINGLE POINT ENERGY      -840.340736044950

DIPOLE MOMENT
-------------
                                X             Y             Z
Electronic contribution:      0.00000       0.14641       0.00000
Nuclear contribution   :      0.00000       0.00711       0.00000
                        -----------------------------------------
Total Dipole Moment    :      0.00000       0.15352       0.00000
                        -----------------------------------------
Magnitude (a.u.)       :      0.15352
Magnitude (Debye)      :      0.39022

VIBRATIONAL FREQUENCIES
-----------------------

Scaling factor for frequencies =  1.000000000  (already applied!)

   0:         0.00 cm**-1
   1:         0.00 cm**-1
   2:         0.00 cm**-1
   3:         0.00 cm**-1
   4:         0.00 cm**-1
   5:         0.00 cm**-1
   6:      -200.30 cm**-1 ***imaginary mode***
   7:       329.75 cm**-1
   8:       331.34 cm**-1
   9:       478.11 cm**-1
  10:       558.78 cm**-1
  11:       559.69 cm**-1
  12:       587.41 cm**-1
  13:       667.15 cm**-1
  14:       842.14 cm**-1
  15:       971.65 cm**-1
  16:      1011.51 cm**-1
  17:      1100.53 cm**-1

IR SPECTRUM
-----------

 Mode   freq       eps      Int      T**2         TX        TY        TZ
       cm**-1   L/(mol*cm) km/mol    a.u.
----------------------------------------------------------------------------
  7:    329.75   0.000201    1.02  0.000191  ( 0.000000 -0.000000  0.013806)
  8:    331.34   0.000326    1.65  0.000307  ( 0.017526 -0.000000 -0.000000)
  9:    478.11   0.007171   36.24  0.004681  ( 0.000000  0.068415 -0.000000)
 10:    558.78   0.010883   55.00  0.006078  ( 0.000000 -0.000000 -0.077961)
 11:    559.69   0.009301   47.00  0.005186  (-0.072012  0.000000 -0.000000)
 12:    587.41   0.000000    0.00  0.000000  ( 0.000000 -0.000000 -0.000000)
 13:    667.15   0.000085    0.43  0.000040  (-0.000000 -0.006306  0.000000)
 14:    842.14   0.000114    0.58  0.000042  (-0.000000  0.006495  0.000000)
 15:    971.65   0.067242  339.82  0.021596  (-0.000000  0.000000 -0.146957)
 16:   1011.51   0.042669  215.63  0.013164  (-0.000000 -0.114734 -0.000000)
 17:   1100.53   0.065418  330.60  0.018550  ( 0.136198 -0.000000  0.000000)

--------------------------
THERMOCHEMISTRY AT 298.15K
--------------------------

Temperature         ... 298.15 K
Pressure            ... 1.00 atm
Total Mass          ... 125.96 AMU

Throughout the following assumptions are being made:
  (1) The electronic state is orbitally nondegenerate
  (2) There are no thermally accessible electronically excited states
  (3) Hindered rotations indicated by low frequency modes are not
      treated as such but are treated as vibrations and this may
      cause some error
  (4) All equations used are the standard statistical mechanics
      equations for an ideal gas
  (5) All vibrations are strictly harmonic

freq.     329.75  E(vib)   ...       0.24
freq.     331.34  E(vib)   ...       0.24
freq.     478.11  E(vib)   ...       0.15
freq.     558.78  E(vib)   ...       0.12
freq.     559.69  E(vib)   ...       0.12
freq.     587.41  E(vib)   ...       0.10
freq.     667.15  E(vib)   ...       0.08
freq.     842.14  E(vib)   ...       0.04
freq.     971.65  E(vib)   ...       0.03
freq.    1011.51  E(vib)   ...       0.02
freq.    1100.53  E(vib)   ...       0.02

------------
INNER ENERGY
------------

The inner energy is: U= E(el) + E(ZPE) + E(vib) + E(rot) + E(trans)
    E(el)   - is the total energy from the electronic structure calculation
              = E(kin-el) + E(nuc-el) + E(el-el) + E(nuc-nuc)
    E(ZPE)  - the the zero temperature vibrational energy from the frequency calculation
    E(vib)  - the the finite temperature correction to E(ZPE) due to population
              of excited vibrational states
    E(rot)  - is the rotational thermal energy
    E(trans)- is the translational thermal energy

Summary of contributions to the inner energy U:
Electronic energy                ...   -840.34073604 Eh
Zero point energy                ...      0.01694514 Eh      10.63 kcal/mol
Thermal vibrational correction   ...      0.00183719 Eh       1.15 kcal/mol
Thermal rotational correction    ...      0.00141627 Eh       0.89 kcal/mol
Thermal translational correction ...      0.00141627 Eh       0.89 kcal/mol
-----------------------------------------------------------------------
Total thermal energy                   -840.31912117 Eh

Summary of corrections to the electronic energy:
(perhaps to be used in another calculation)
Total thermal correction                  0.00466973 Eh       2.93 kcal/mol
Non-thermal (ZPE) correction              0.01694514 Eh      10.63 kcal/mol
-----------------------------------------------------------------------
Total correction                          0.02161487 Eh      13.56 kcal/mol

--------
ENTHALPY
--------

The enthalpy is H = U + kB*T
                kB is Boltzmann's constant
Total free energy                 ...   -840.31912117 Eh
Thermal Enthalpy correction       ...      0.00094421 Eh       0.59 kcal/mol
-----------------------------------------------------------------------
Total Enthalpy                    ...   -840.31817697 Eh

Note: Rotational entropy computed according to Herzberg
Infrared and Raman Spectra, Chapter V,1, Van Nostrand Reinhold, 1945
Point Group:  C2v, Symmetry Number:   2
Rotational constants in cm-1:     0.120049     0.116130     0.098253

Vibrational entropy computed according to the QRRHO of S. Grimme
Chem.Eur.J. 2012 18 9955

-------
ENTROPY
-------

The entropy contributions are T*S = T*(S(el)+S(vib)+S(rot)+S(trans))
     S(el)   - electronic entropy
     S(vib)  - vibrational entropy
     S(rot)  - rotational entropy
     S(trans)- translational entropy
The entropies will be listed as multiplied by the temperature to get
units of energy

Electronic entropy                ...      0.00000000 Eh      0.00 kcal/mol
Vibrational entropy               ...      0.00263344 Eh      1.65 kcal/mol
Rotational entropy                ...      0.01196890 Eh      7.51 kcal/mol
Translational entropy             ...      0.01919815 Eh     12.05 kcal/mol
-----------------------------------------------------------------------
Final entropy term                ...      0.03380049 Eh     21.21 kcal/mol

In case the symmetry of your molecule has not been determined correctly
or in case you have a reason to use a different symmetry number we print
out the resulting rotational entropy values for sn=1,12 :
 --------------------------------------------------------
|  sn= 1 | S(rot)=       0.01262336 Eh      7.92 kcal/mol|
|  sn= 2 | S(rot)=       0.01196890 Eh      7.51 kcal/mol|
|  sn= 3 | S(rot)=       0.01158607 Eh      7.27 kcal/mol|
|  sn= 4 | S(rot)=       0.01131444 Eh      7.10 kcal/mol|
|  sn= 5 | S(rot)=       0.01110376 Eh      6.97 kcal/mol|
|  sn= 6 | S(rot)=       0.01093161 Eh      6.86 kcal/mol|
|  sn= 7 | S(rot)=       0.01078606 Eh      6.77 kcal/mol|
|  sn= 8 | S(rot)=       0.01065999 Eh      6.69 kcal/mol|
|  sn= 9 | S(rot)=       0.01054878 Eh      6.62 kcal/mol|
|  sn=10 | S(rot)=       0.01044930 Eh      6.56 kcal/mol|
|  sn=11 | S(rot)=       0.01035931 Eh      6.50 kcal/mol|
|  sn=12 | S(rot)=       0.01027715 Eh      6.45 kcal/mol|
 --------------------------------------------------------

-------------------
GIBBS FREE ENERGY
-------------------

The Gibbs free energy is G = H - T*S

Total enthalpy                    ...   -840.31817697 Eh
Total entropy correction          ...     -0.03380049 Eh    -21.21 kcal/mol
-----------------------------------------------------------------------
Final Gibbs free energy         ...   -840.35197746 Eh

For completeness - the Gibbs free energy minus the electronic energy
G-E(el)                           ...     -0.01124141 Eh     -7.05 kcal/mol

                             ****ORCA TERMINATED NORMALLY****
TOTAL RUN TIME: 0 days 0 hours 1 minutes 31 seconds 173 msec
