                         Program Version 5.0.4 -  RELEASE  -
|  1> ! PBE def2-TZVP OptTS
|  2>
|  3> # %geom
|  4> #   Calc_Hess true
|  5> # end
|  6>
|  7> %geom
|  8>   inhess read
|  9>   inhessname "PF5_ts_guess.hess"
| 10> end
| 11>
| 12> * xyz 0 1
| 13> P  0.0000  0.0000  0.0000  # Phosphorus (P)
| 14> F  0.0000  1.5340  0.0000  # Equatorial Fluorine (F1)
| 15> F  1.4817 -0.4026  0.0000  # Equatorial Fluorine (F2)
| 16> F -1.4817 -0.4026  0.0000  # Equatorial Fluorine (F3)
| 17> F  0.0000 -0.4026  1.5232  # Axial Fluorine (F4)
| 18> F  0.0000 -0.4026 -1.5232  # Axial Fluorine (F5)
| 19> **                         ****END OF INPUT****
 Total Charge           Charge          ....    0
 Multiplicity           Mult            ....    1
 Number of Electrons    NEL             ....   60
FINAL SINGLE POINT ENERGY      -840.340736028926
FINAL SINGLE POINT ENERGY      -840.349049254012
FINAL SINGLE POINT ENERGY      -840.349224034824
FINAL SINGLE POINT ENERGY      -840.349228200199
                    ***********************HURRAY********************

CARTESIAN COORDINATES (ANGSTROEM)
---------------------------------
  P      0.000000   -0.043956    0.000000
  F     -0.000000    1.503423    0.000000
  F      1.554077   -0.385519   -0.000000
  F     -1.554077   -0.385519   -0.000000
  F     -0.000000   -0.382414    1.555033
  F     -0.000000   -0.382414   -1.555033

 Multiplicity           Mult            ....    1
 Number of Electrons    NEL             ....   60
 Basis Dimension        Dim             ....  192

ORBITAL ENERGIES
----------------

  NO   OCC          E(Eh)            E(eV)
   0   2.0000     -76.558871     -2083.2728
   1   2.0000     -24.332548      -662.1223
   2   2.0000     -24.301464      -661.2765
   3   2.0000     -24.301452      -661.2761
   4   2.0000     -24.301215      -661.2697
   5   2.0000     -24.301203      -661.2693
   6   2.0000      -6.530173      -177.6950
   7   2.0000      -4.750231      -129.2603
   8   2.0000      -4.746712      -129.1646
   9   2.0000      -4.746699      -129.1642
  10   2.0000      -1.224688       -33.3255
  11   2.0000      -1.165359       -31.7110
  12   2.0000      -1.148893       -31.2630
  13   2.0000      -1.148648       -31.2563
  14   2.0000      -1.107844       -30.1460
  15   2.0000      -0.649321       -17.6689
  16   2.0000      -0.547993       -14.9116
  17   2.0000      -0.544394       -14.8137
  18   2.0000      -0.544288       -14.8108
  19   2.0000      -0.478245       -13.0137
  20   2.0000      -0.464108       -12.6290
  21   2.0000      -0.464107       -12.6290
  22   2.0000      -0.449948       -12.2437
  23   2.0000      -0.447249       -12.1703
  24   2.0000      -0.404704       -11.0126
  25   2.0000      -0.404567       -11.0088
  26   2.0000      -0.392370       -10.6769
  27   2.0000      -0.390740       -10.6326
  28   2.0000      -0.390682       -10.6310
  29   2.0000      -0.349346        -9.5062
  30   0.0000      -0.087805        -2.3893
  31   0.0000       0.022240         0.6052
  32   0.0000       0.104931         2.8553
  33   0.0000       0.105251         2.8640
  34   0.0000       0.155500         4.2314

MULLIKEN ATOMIC CHARGES
-----------------------
   0 P :    0.949324
   1 F :   -0.156248
   2 F :   -0.198014
   3 F :   -0.198014
   4 F :   -0.198524
   5 F :   -0.198524
Sum of atomic charges:   -0.0000000

LOEWDIN ATOMIC CHARGES
----------------------
   0 P :   -0.059803
   1 F :    0.063155
   2 F :   -0.000611
   3 F :   -0.000611
   4 F :   -0.001065
   5 F :   -0.001065

  Mayer bond orders larger than 0.100000
B(  0-P ,  1-F ) :   1.2333 B(  0-P ,  2-F ) :   1.1843 B(  0-P ,  3-F ) :   1.1843
B(  0-P ,  4-F ) :   1.1841 B(  0-P ,  5-F ) :   1.1841

FINAL SINGLE POINT ENERGY      -840.349227945937

DIPOLE MOMENT
-------------
                                X             Y             Z
Electronic contribution:      0.00000       0.02859       0.00000
Nuclear contribution   :      0.00000      -0.01744       0.00000
                        -----------------------------------------
Total Dipole Moment    :      0.00000       0.01116       0.00000
                        -----------------------------------------
Magnitude (a.u.)       :      0.01116
Magnitude (Debye)      :      0.02836

Rotational constants in cm-1:     0.115511     0.115422     0.091795
Rotational constants in MHz :  3462.935944  3460.259402  2751.931295

                             ****ORCA TERMINATED NORMALLY****
TOTAL RUN TIME: 0 days 0 hours 0 minutes 54 seconds 591 msec
