                         Program Version 5.0.4 -  RELEASE  -
|  1> ! PBE def2-TZVP OptTS
|  2>
|  3> # %geom
|  4> #   Calc_Hess true
|  5> # end
|  6>
|  7> %geom
|  8>   inhess read
|  9>   inhessname "PF5_ts_guess.hess"
| 10> end
| 11>
| 12> * xyz 0 1
| 13> P  0.0000  0.0000  0.0000  # Phosphorus (P)
| 14> F  0.0000  1.5340  0.0000  # Equatorial Fluorine (F1)
| 15> F  1.4817 -0.4026  0.0000  # Equatorial Fluorine (F2)
| 16> F -1.4817 -0.4026  0.0000  # Equatorial Fluorine (F3)
| 17> F  0.0000 -0.4026  1.4817  # Axial Fluorine (F4)
| 18> F  0.0000 -0.4026 -1.4817  # Axial Fluorine (F5)
| 19> **                         ****END OF INPUT****
 Total Charge           Charge          ....    0
 Multiplicity           Mult            ....    1
 Number of Electrons    NEL             ....   60
FINAL SINGLE POINT ENERGY      -840.334612404007
FINAL SINGLE POINT ENERGY      -840.348734063615
FINAL SINGLE POINT ENERGY      -840.349212894496
FINAL SINGLE POINT ENERGY      -840.349227763566
                    ***********************HURRAY********************

CARTESIAN COORDINATES (ANGSTROEM)
---------------------------------
  P      0.000000   -0.043918   -0.000000
  F      0.000000    1.503458    0.000000
  F      1.554557   -0.383985    0.000000
  F     -1.554557   -0.383985    0.000000
  F     -0.000000   -0.383985    1.554557
  F     -0.000000   -0.383985   -1.554557

 Multiplicity           Mult            ....    1
 Number of Electrons    NEL             ....   60
 Basis Dimension        Dim             ....  192

ORBITAL ENERGIES
----------------

  NO   OCC          E(Eh)            E(eV)
   0   2.0000     -76.558872     -2083.2728
   1   2.0000     -24.332563      -662.1227
   2   2.0000     -24.301335      -661.2729
   3   2.0000     -24.301335      -661.2729
   4   2.0000     -24.301329      -661.2728
   5   2.0000     -24.301317      -661.2725
   6   2.0000      -6.530174      -177.6951
   7   2.0000      -4.750231      -129.2604
   8   2.0000      -4.746707      -129.1645
   9   2.0000      -4.746707      -129.1645
  10   2.0000      -1.224686       -33.3254
  11   2.0000      -1.165366       -31.7112
  12   2.0000      -1.148764       -31.2594
  13   2.0000      -1.148764       -31.2594
  14   2.0000      -1.107838       -30.1458
  15   2.0000      -0.649322       -17.6689
  16   2.0000      -0.547996       -14.9117
  17   2.0000      -0.544338       -14.8122
  18   2.0000      -0.544338       -14.8122
  19   2.0000      -0.478239       -13.0135
  20   2.0000      -0.464110       -12.6291
  21   2.0000      -0.464110       -12.6291
  22   2.0000      -0.449942       -12.2436
  23   2.0000      -0.447250       -12.1703
  24   2.0000      -0.404638       -11.0108
  25   2.0000      -0.404638       -11.0108
  26   2.0000      -0.392364       -10.6768
  27   2.0000      -0.390707       -10.6317
  28   2.0000      -0.390707       -10.6317
  29   2.0000      -0.349342        -9.5061
  30   0.0000      -0.087792        -2.3889
  31   0.0000       0.022224         0.6047
  32   0.0000       0.105079         2.8593
  33   0.0000       0.105079         2.8593
  34   0.0000       0.155505         4.2315

MULLIKEN ATOMIC CHARGES
-----------------------
   0 P :    0.949326
   1 F :   -0.156235
   2 F :   -0.198273
   3 F :   -0.198273
   4 F :   -0.198273
   5 F :   -0.198273
Sum of atomic charges:   -0.0000000

LOEWDIN ATOMIC CHARGES
----------------------
   0 P :   -0.059764
   1 F :    0.063168
   2 F :   -0.000851
   3 F :   -0.000851
   4 F :   -0.000851
   5 F :   -0.000851

  Mayer bond orders larger than 0.100000
B(  0-P ,  1-F ) :   1.2333 B(  0-P ,  2-F ) :   1.1842 B(  0-P ,  3-F ) :   1.1842
B(  0-P ,  4-F ) :   1.1842 B(  0-P ,  5-F ) :   1.1842

FINAL SINGLE POINT ENERGY      -840.349227787645

DIPOLE MOMENT
-------------
                                X             Y             Z
Electronic contribution:      0.00000       0.02874      -0.00000
Nuclear contribution   :      0.00000      -0.01741      -0.00000
                        -----------------------------------------
Total Dipole Moment    :      0.00000       0.01132      -0.00000
                        -----------------------------------------
Magnitude (a.u.)       :      0.01132
Magnitude (Debye)      :      0.02878

Rotational constants in cm-1:     0.115464     0.115464     0.091794
Rotational constants in MHz :  3461.527911  3461.527692  2751.925351

                             ****ORCA TERMINATED NORMALLY****
TOTAL RUN TIME: 0 days 0 hours 1 minutes 41 seconds 165 msec
