                         Program Version 5.0.4 -  RELEASE  -
|  1> ! PBE def2-TZVP
|  2>
|  3> * xyz 0 1
|  4>   Sb     0.000000   -0.072745    0.000000
|  5>   Cl    -0.000000    2.239955   -0.000000
|  6>   Cl     2.311771   -0.569753    0.000000
|  7>   Cl    -2.311771   -0.569753    0.000000
|  8>   Cl     0.000000   -0.569753    2.311771
|  9>   Cl     0.000000   -0.569753   -2.311771
| 10> *
| 11>
| 12>                          ****END OF INPUT****

CARTESIAN COORDINATES (ANGSTROEM)
---------------------------------
  Sb     0.000000   -0.072745    0.000000
  Cl    -0.000000    2.239955   -0.000000
  Cl     2.311771   -0.569753    0.000000
  Cl    -2.311771   -0.569753    0.000000
  Cl     0.000000   -0.569753    2.311771
  Cl     0.000000   -0.569753   -2.311771

 Total Charge           Charge          ....    0
 Multiplicity           Mult            ....    1
 Number of Electrons    NEL             ....  108
 Basis Dimension        Dim             ....  235

ORBITAL ENERGIES
----------------

  NO   OCC          E(Eh)            E(eV)
   0   2.0000    -100.700135     -2740.1900
   1   2.0000    -100.683460     -2739.7362
   2   2.0000    -100.683460     -2739.7362
   3   2.0000    -100.683460     -2739.7362
   4   2.0000    -100.683459     -2739.7362
   5   2.0000      -9.214069      -250.7276
   6   2.0000      -9.197502      -250.2767
   7   2.0000      -9.197502      -250.2767
   8   2.0000      -9.197500      -250.2767
   9   2.0000      -9.197499      -250.2767
  10   2.0000      -7.036512      -191.4732
  11   2.0000      -7.027711      -191.2337
  12   2.0000      -7.027711      -191.2337
  13   2.0000      -7.019899      -191.0212
  14   2.0000      -7.019899      -191.0212
  15   2.0000      -7.019899      -191.0212
  16   2.0000      -7.019897      -191.0211
  17   2.0000      -7.011700      -190.7981
  18   2.0000      -7.011698      -190.7980
  19   2.0000      -7.011696      -190.7980
  20   2.0000      -7.011696      -190.7980
  21   2.0000      -7.010637      -190.7691
  22   2.0000      -7.010637      -190.7691
  23   2.0000      -7.010637      -190.7691
  24   2.0000      -7.010635      -190.7691
  25   2.0000      -5.636099      -153.3660
  26   2.0000      -3.905405      -106.2715
  27   2.0000      -3.902899      -106.2033
  28   2.0000      -3.902899      -106.2033
  29   2.0000      -1.345612       -36.6160
  30   2.0000      -1.343307       -36.5532
  31   2.0000      -1.342915       -36.5426
  32   2.0000      -1.342915       -36.5426
  33   2.0000      -1.340721       -36.4829
  34   2.0000      -0.815894       -22.2016
  35   2.0000      -0.774097       -21.0642
  36   2.0000      -0.767901       -20.8956
  37   2.0000      -0.767901       -20.8956
  38   2.0000      -0.747264       -20.3341
  39   2.0000      -0.566887       -15.4258
  40   2.0000      -0.417857       -11.3705
  41   2.0000      -0.417857       -11.3705
  42   2.0000      -0.413068       -11.2401
  43   2.0000      -0.342593        -9.3224
  44   2.0000      -0.334013        -9.0890
  45   2.0000      -0.334013        -9.0890
  46   2.0000      -0.330532        -8.9942
  47   2.0000      -0.324811        -8.8386
  48   2.0000      -0.309902        -8.4329
  49   2.0000      -0.309902        -8.4329
  50   2.0000      -0.303277        -8.2526
  51   2.0000      -0.301831        -8.2132
  52   2.0000      -0.301831        -8.2132
  53   2.0000      -0.278803        -7.5866
  54   0.0000      -0.207043        -5.6339
  55   0.0000      -0.107053        -2.9131
  56   0.0000      -0.050306        -1.3689
  57   0.0000      -0.050306        -1.3689
  58   0.0000       0.078916         2.1474

MULLIKEN ATOMIC CHARGES
-----------------------
   0 Sb:    0.995482
   1 Cl:   -0.190753
   2 Cl:   -0.201182
   3 Cl:   -0.201182
   4 Cl:   -0.201182
   5 Cl:   -0.201182
Sum of atomic charges:   -0.0000000

LOEWDIN ATOMIC CHARGES
----------------------
   0 Sb:   -0.312566
   1 Cl:    0.104243
   2 Cl:    0.052081
   3 Cl:    0.052081
   4 Cl:    0.052081
   5 Cl:    0.052081

  Mayer bond orders larger than 0.100000
B(  0-Sb,  1-Cl) :   1.0380 B(  0-Sb,  2-Cl) :   0.9787 B(  0-Sb,  3-Cl) :   0.9787
B(  0-Sb,  4-Cl) :   0.9787 B(  0-Sb,  5-Cl) :   0.9787

FINAL SINGLE POINT ENERGY     -2540.507927235009

DIPOLE MOMENT
-------------
                                X             Y             Z
Electronic contribution:     -0.00000      -2.50965       0.00000
Nuclear contribution   :      0.00000       2.57370       0.00000
                        -----------------------------------------
Total Dipole Moment    :     -0.00000       0.06405       0.00000
                        -----------------------------------------
Magnitude (a.u.)       :      0.06405
Magnitude (Debye)      :      0.16279

Rotational constants in cm-1:     0.027949     0.027949     0.022243
Rotational constants in MHz :   837.897359   837.897359   666.829799

                             ****ORCA TERMINATED NORMALLY****
TOTAL RUN TIME: 0 days 0 hours 0 minutes 14 seconds 403 msec
