                         Program Version 5.0.4 -  RELEASE  -
|  1> ! PBE def2-TZVP Opt
|  2>
|  3> * xyz 0 1
|  4> P  0.0000  0.0000  0.0000
|  5> F  0.0000  1.5340  0.0000
|  6> F  1.3285 -0.7670  0.0000
|  7> F -1.3285 -0.7670  0.0000
|  8> F  0.0000  0.0000  1.5770
|  9> F  0.0000  0.0000 -1.5770
| 10> *
| 11>
| 12>                          ****END OF INPUT****
 Total Charge           Charge          ....    0
 Multiplicity           Mult            ....    1
 Number of Electrons    NEL             ....   60
FINAL SINGLE POINT ENERGY      -840.351358240767
FINAL SINGLE POINT ENERGY      -840.353736644549
FINAL SINGLE POINT ENERGY      -840.354670703107
FINAL SINGLE POINT ENERGY      -840.354681577005
FINAL SINGLE POINT ENERGY      -840.354683428689
FINAL SINGLE POINT ENERGY      -840.354684572088
                    ***********************HURRAY********************

CARTESIAN COORDINATES (ANGSTROEM)
---------------------------------
  P     -0.000000    0.000246   -0.000000
  F      0.000000    1.566157    0.000000
  F      1.355301   -0.784033    0.000000
  F     -1.355301   -0.784033   -0.000000
  F     -0.000000    0.000831    1.601660
  F     -0.000000    0.000831   -1.601660

 Multiplicity           Mult            ....    1
 Number of Electrons    NEL             ....   60
 Basis Dimension        Dim             ....  192

ORBITAL ENERGIES
----------------

  NO   OCC          E(Eh)            E(eV)
   0   2.0000     -76.558292     -2083.2570
   1   2.0000     -24.324432      -661.9014
   2   2.0000     -24.324414      -661.9009
   3   2.0000     -24.324410      -661.9009
   4   2.0000     -24.284195      -660.8066
   5   2.0000     -24.284169      -660.8058
   6   2.0000      -6.529689      -177.6819
   7   2.0000      -4.748418      -129.2110
   8   2.0000      -4.748404      -129.2107
   9   2.0000      -4.745368      -129.1280
  10   2.0000      -1.225741       -33.3541
  11   2.0000      -1.168212       -31.7887
  12   2.0000      -1.168158       -31.7872
  13   2.0000      -1.133966       -30.8568
  14   2.0000      -1.105643       -30.0861
  15   2.0000      -0.650009       -17.6876
  16   2.0000      -0.551801       -15.0153
  17   2.0000      -0.551757       -15.0141
  18   2.0000      -0.537588       -14.6285
  19   2.0000      -0.473777       -12.8921
  20   2.0000      -0.473673       -12.8893
  21   2.0000      -0.460802       -12.5391
  22   2.0000      -0.460756       -12.5378
  23   2.0000      -0.446490       -12.1496
  24   2.0000      -0.422716       -11.5027
  25   2.0000      -0.403422       -10.9777
  26   2.0000      -0.387809       -10.5528
  27   2.0000      -0.387801       -10.5526
  28   2.0000      -0.363710        -9.8971
  29   2.0000      -0.363596        -9.8939
  30   0.0000      -0.044650        -1.2150
  31   0.0000       0.029671         0.8074
  32   0.0000       0.030241         0.8229
  33   0.0000       0.122015         3.3202
  34   0.0000       0.165935         4.5153

MULLIKEN ATOMIC CHARGES
-----------------------
   0 P :    0.951031
   1 F :   -0.159908
   2 F :   -0.159912
   3 F :   -0.159912
   4 F :   -0.235649
   5 F :   -0.235649
Sum of atomic charges:    0.0000000

LOEWDIN ATOMIC CHARGES
----------------------
   0 P :   -0.066401
   1 F :    0.039873
   2 F :    0.039931
   3 F :    0.039931
   4 F :   -0.026667
   5 F :   -0.026667

  Mayer bond orders larger than 0.100000
B(  0-P ,  1-F ) :   1.2091 B(  0-P ,  2-F ) :   1.2092 B(  0-P ,  3-F ) :   1.2092
B(  0-P ,  4-F ) :   1.1848 B(  0-P ,  5-F ) :   1.1848

FINAL SINGLE POINT ENERGY      -840.354684657210

DIPOLE MOMENT
-------------
                                X             Y             Z
Electronic contribution:     -0.00000       0.00043       0.00000
Nuclear contribution   :     -0.00000       0.00014      -0.00000
                        -----------------------------------------
Total Dipole Moment    :     -0.00000       0.00057       0.00000
                        -----------------------------------------
Magnitude (a.u.)       :      0.00057
Magnitude (Debye)      :      0.00144

Rotational constants in cm-1:     0.120629     0.100784     0.100686
Rotational constants in MHz :  3616.356650  3021.442215  3018.498656

                             ****ORCA TERMINATED NORMALLY****
TOTAL RUN TIME: 0 days 0 hours 4 minutes 16 seconds 343 msec
