                         Program Version 5.0.4 -  RELEASE  -
|  1> ! PBE def2-TZVP
|  2>
|  3> * xyz 0 1
|  4> P 0.000000    0.000438    0.000000
|  5> F 0.000000    2.959621   -0.000000
|  6> F 2.561312   -1.481482    0.000000
|  7> F-2.561312   -1.481482   -0.000000
|  8> F-0.000000    0.001453    3.027097
|  9> F-0.000000    0.001453   -3.027097
| 10> *
| 11>
| 12>                          ****END OF INPUT****

CARTESIAN COORDINATES (ANGSTROEM)
---------------------------------
  P      0.000000    0.000438    0.000000
  F      0.000000    2.959621   -0.000000
  F      2.561312   -1.481482    0.000000
  F     -2.561312   -1.481482   -0.000000
  F     -0.000000    0.001453    3.027097
  F     -0.000000    0.001453   -3.027097

 Total Charge           Charge          ....    0
 Multiplicity           Mult            ....    1
 Number of Electrons    NEL             ....   60
 Basis Dimension        Dim             ....  192

ORBITAL ENERGIES
----------------

  NO   OCC          E(Eh)            E(eV)
   0   2.0000     -76.635470     -2085.3572
   1   2.0000     -24.306392      -661.4105
   2   2.0000     -24.305524      -661.3869
   3   2.0000     -24.305517      -661.3867
   4   2.0000     -24.303530      -661.3327
   5   2.0000     -24.303525      -661.3325
   6   2.0000      -6.614735      -179.9961
   7   2.0000      -4.832125      -131.4888
   8   2.0000      -4.832006      -131.4856
   9   2.0000      -4.831978      -131.4848
  10   2.0000      -1.062678       -28.9169
  11   2.0000      -1.061977       -28.8979
  12   2.0000      -1.061939       -28.8968
  13   2.0000      -1.059846       -28.8399
  14   2.0000      -1.059842       -28.8398
  15   2.0000      -0.693057       -18.8590
  16   2.0000      -0.404079       -10.9955
  17   2.0000      -0.403366       -10.9762
  18   2.0000      -0.401404       -10.9228
  19   2.0000      -0.384808       -10.4712
  20   2.0000      -0.382284       -10.4025
  21   2.0000      -0.382107       -10.3976
  22   2.0000      -0.380819       -10.3626
  23   2.0000      -0.380462       -10.3529
  24   2.0000      -0.380090       -10.3428
  25   2.0000      -0.369193       -10.0462
  26   2.0000      -0.368617       -10.0306
  27   2.0000      -0.367783       -10.0079
  28   2.0000      -0.365199        -9.9376
  29   2.0000      -0.364898        -9.9294
  30   0.0000      -0.380340       -10.3496
  31   0.0000      -0.337892        -9.1945
  32   0.0000      -0.337043        -9.1714
  33   0.0000      -0.334553        -9.1036
  34   0.0000       0.082259         2.2384

MULLIKEN ATOMIC CHARGES
-----------------------
   0 P :    0.979933
   1 F :   -0.198880
   2 F :   -0.198859
   3 F :   -0.198956
   4 F :   -0.191619
   5 F :   -0.191618
Sum of atomic charges:   -0.0000000

LOEWDIN ATOMIC CHARGES
----------------------
   0 P :    0.940784
   1 F :   -0.190768
   2 F :   -0.190747
   3 F :   -0.190777
   4 F :   -0.184246
   5 F :   -0.184245

  Mayer bond orders larger than 0.100000
B(  0-P ,  1-F ) :   0.5809 B(  0-P ,  2-F ) :   0.5811 B(  0-P ,  3-F ) :   0.5931
B(  0-P ,  4-F ) :   0.5044 B(  0-P ,  5-F ) :   0.5043 B(  1-F ,  2-F ) :   0.2008
B(  1-F ,  3-F ) :   0.1814 B(  1-F ,  4-F ) :   0.1747 B(  1-F ,  5-F ) :   0.1747
B(  2-F ,  3-F ) :   0.1812 B(  2-F ,  4-F ) :   0.1747 B(  2-F ,  5-F ) :   0.1747
B(  3-F ,  4-F ) :   0.1772 B(  3-F ,  5-F ) :   0.1772 B(  4-F ,  5-F ) :   0.2725

FINAL SINGLE POINT ENERGY      -839.534701089564

DIPOLE MOMENT
-------------
                                X             Y             Z
Electronic contribution:     -0.00056       0.00024      -0.00001
Nuclear contribution   :      0.00000       0.00024       0.00000
                        -----------------------------------------
Total Dipole Moment    :     -0.00056       0.00049      -0.00001
                        -----------------------------------------
Magnitude (a.u.)       :      0.00074
Magnitude (Debye)      :      0.00189

Rotational constants in cm-1:     0.033778     0.028217     0.028191
Rotational constants in MHz :  1012.643638   845.915066   845.154482

                             ****ORCA TERMINATED NORMALLY****
TOTAL RUN TIME: 0 days 0 hours 3 minutes 41 seconds 441 msec
